/*--------------------------------*- C++ -*----------------------------------*\
  =========                 |
  \\      /  F ield         | OpenFOAM: The Open Source CFD Toolbox
   \\    /   O peration     | Website:  https://openfoam.org
    \\  /    A nd           | Version:  7
     \\/     M anipulation  |
\*---------------------------------------------------------------------------*/
FoamFile
{
    version     2.0;
    format      ascii;
    class       volScalarField;
    location    "135";
    object      p;
}
// * * * * * * * * * * * * * * * * * * * * * * * * * * * * * * * * * * * * * //

dimensions      [0 2 -2 0 0 0 0];

internalField   nonuniform List<scalar> 
2125
(
-0.395037
-0.401055
-0.396841
-0.407571
-0.402266
-0.414647
-0.408203
-0.40206
-0.422334
-0.414705
-0.407691
-0.399558
-0.43067
-0.421811
-0.413914
-0.404744
-0.393613
-0.379343
-0.439664
-0.429538
-0.420739
-0.410431
-0.397779
-0.38156
-0.360753
-0.449296
-0.437874
-0.428143
-0.416564
-0.402147
-0.383654
-0.360465
-0.333611
-0.459507
-0.446775
-0.436062
-0.423049
-0.406571
-0.385479
-0.359735
-0.330871
-0.300623
-0.271644
-0.470203
-0.45616
-0.444395
-0.429747
-0.410868
-0.38688
-0.358473
-0.327626
-0.296269
-0.26658
-0.481245
-0.46591
-0.452998
-0.436471
-0.414824
-0.387701
-0.356588
-0.323822
-0.29141
-0.261026
-0.492458
-0.475861
-0.461686
-0.442988
-0.418216
-0.387787
-0.35399
-0.319397
-0.285998
-0.254941
-0.503624
-0.48581
-0.47023
-0.449032
-0.420815
-0.386992
-0.350585
-0.314285
-0.279974
-0.248279
-0.514487
-0.495515
-0.478361
-0.454313
-0.422399
-0.385175
-0.346281
-0.308414
-0.273279
-0.240994
-0.524756
-0.504694
-0.485772
-0.458533
-0.422756
-0.382202
-0.340987
-0.301712
-0.265851
-0.233041
-0.534113
-0.513039
-0.492131
-0.461398
-0.421686
-0.377948
-0.334614
-0.294104
-0.257629
-0.224379
-0.542217
-0.520215
-0.497092
-0.462626
-0.41901
-0.372296
-0.327074
-0.28552
-0.248553
-0.214973
-0.548716
-0.525873
-0.50031
-0.461958
-0.414564
-0.36514
-0.318288
-0.275892
-0.238572
-0.204794
-0.553253
-0.529659
-0.501453
-0.459159
-0.408207
-0.356385
-0.308181
-0.265159
-0.227647
-0.193827
-0.555483
-0.531225
-0.500214
-0.45403
-0.399817
-0.345947
-0.296685
-0.253265
-0.215746
-0.182067
-0.555075
-0.530239
-0.496325
-0.446401
-0.389296
-0.333758
-0.283742
-0.240159
-0.202832
-0.16947
-0.551727
-0.526398
-0.489557
-0.436143
-0.376571
-0.319768
-0.269311
-0.225802
-0.188833
-0.155861
-0.545172
-0.519435
-0.479732
-0.423163
-0.361594
-0.303945
-0.25337
-0.210181
-0.173687
-0.140954
-0.535189
-0.509136
-0.466715
-0.407405
-0.344341
-0.286272
-0.235909
-0.1933
-0.157446
-0.12475
-0.521604
-0.49534
-0.45042
-0.388849
-0.324813
-0.26675
-0.216924
-0.175172
-0.140199
-0.1082
-0.504296
-0.477941
-0.43081
-0.36751
-0.303036
-0.245397
-0.196449
-0.155867
-0.121813
-0.0911196
-0.483204
-0.456892
-0.407895
-0.34344
-0.279061
-0.222265
-0.17459
-0.135367
-0.102426
-0.0733027
-0.458319
-0.432203
-0.38174
-0.31673
-0.252964
-0.197458
-0.151354
-0.113715
-0.0821331
-0.054729
-0.429689
-0.403946
-0.352482
-0.287487
-0.224827
-0.171038
-0.126806
-0.0909889
-0.060998
-0.0354643
-0.397416
-0.372259
-0.320324
-0.255781
-0.194763
-0.143092
-0.101039
-0.0672769
-0.0390907
-0.0156105
-0.361664
-0.337349
-0.285373
-0.221697
-0.162953
-0.113754
-0.0741625
-0.0426738
-0.0164947
0.00471975
-0.32266
-0.299504
-0.247368
-0.185716
-0.129556
-0.0831651
-0.0463009
-0.0172816
0.00670511
0.0254393
-0.280623
-0.258966
-0.206701
-0.147935
-0.0947735
-0.0514893
-0.0175903
0.00879266
0.030422
0.0464576
-0.235741
-0.215379
-0.164533
-0.108583
-0.0587963
-0.0188966
0.0118331
0.0354483
0.0545137
0.0674402
-0.18837
-0.169594
-0.120816
-0.0679379
-0.0218309
0.0144425
0.041852
0.0625992
0.0786998
0.0875762
-0.139101
-0.121834
-0.0756883
-0.0262687
0.0158962
0.0483535
0.0723574
0.09014
0.102643
0.106292
-0.0881223
-0.0726018
-0.0294363
0.0161525
0.0541466
0.0826487
0.103189
0.117835
0.126244
0.125297
-0.0358528
-0.0223174
0.0175926
0.0590398
0.0926757
0.117119
0.134096
0.14529
0.149489
0.149417
0.0172647
0.0286209
0.0650325
0.102096
0.131234
0.151537
0.164813
0.172375
0.173264
0.173586
0.0707863
0.0798079
0.112514
0.145018
0.169565
0.185674
0.195168
0.199154
0.197221
0.196434
0.124265
0.130832
0.15967
0.187498
0.207409
0.2193
0.224987
0.225504
0.220929
0.21829
0.177252
0.181279
0.206135
0.229231
0.244505
0.252195
0.254101
0.251246
0.244047
0.23915
0.229303
0.230739
0.251551
0.269914
0.280598
0.284141
0.282331
0.276202
0.266387
0.259045
0.27998
0.278809
0.295569
0.309252
0.315437
0.314927
0.309498
0.300195
0.287797
0.277936
0.328857
0.325094
0.337848
0.346958
0.348778
0.344348
0.335425
0.323067
0.30815
0.295763
0.37552
0.369219
0.378064
0.382758
0.380388
0.372204
0.359941
0.34467
0.327328
0.312455
0.419577
0.410821
0.415906
0.416388
0.410046
0.398306
0.382885
0.364863
0.345218
0.327936
0.460655
0.449561
0.451081
0.447603
0.437539
0.422476
0.404103
0.383517
0.361712
0.342133
0.498406
0.485121
0.483318
0.47617
0.462673
0.444545
0.423453
0.400509
0.37671
0.354975
0.532509
0.51721
0.512366
0.501879
0.485267
0.46436
0.440806
0.41573
0.390118
0.366397
0.562672
0.545562
0.537997
0.524535
0.505156
0.481782
0.456041
0.429075
0.40185
0.37634
0.588634
0.56994
0.56001
0.543969
0.522194
0.496685
0.469054
0.440455
0.411832
0.384752
0.610169
0.590141
0.578227
0.560029
0.536255
0.508963
0.479751
0.44979
0.419995
0.391589
0.627085
0.605988
0.592499
0.572591
0.54723
0.518522
0.488056
0.457013
0.426284
0.396814
0.639226
0.617343
0.602706
0.581552
0.555032
0.525288
0.493904
0.462069
0.430655
0.400401
0.646474
0.624097
0.608757
0.586833
0.559595
0.529206
0.497248
0.464918
0.433076
0.402341
0.588383
0.560874
0.530237
0.498056
0.46553
0.433521
0.4026
-0.191439
-0.200468
-0.208877
-0.216685
-0.223915
-0.230587
-0.236725
-0.242346
-0.174651
-0.183115
-0.191049
-0.198468
-0.205392
-0.211833
-0.217806
-0.223321
-0.158989
-0.166863
-0.174293
-0.181297
-0.18789
-0.194089
-0.199907
-0.20536
-0.144419
-0.151754
-0.158728
-0.165355
-0.171649
-0.177627
-0.183303
-0.188697
-0.13094
-0.137773
-0.14431
-0.150565
-0.156548
-0.162272
-0.16775
-0.172997
-0.118469
-0.124817
-0.130923
-0.136795
-0.142441
-0.147871
-0.153091
-0.158109
-0.106909
-0.112793
-0.118477
-0.123965
-0.129264
-0.134381
-0.139321
-0.14409
-0.0961865
-0.101632
-0.106909
-0.112025
-0.116983
-0.12179
-0.126451
-0.130975
-0.0862383
-0.0912731
-0.0961662
-0.100925
-0.105553
-0.110057
-0.114442
-0.118712
-0.077033
-0.0816794
-0.0862064
-0.0906218
-0.0949298
-0.099134
-0.103238
-0.107246
-0.0685192
-0.0727993
-0.0769799
-0.0810675
-0.0850656
-0.088977
-0.0928049
-0.0965529
-0.0606333
-0.0645723
-0.068429
-0.0722078
-0.0759117
-0.0795431
-0.0831051
-0.0866009
-0.0533458
-0.0569664
-0.0605195
-0.0640076
-0.0674325
-0.0707964
-0.0741021
-0.0773519
-0.0466067
-0.049934
-0.0532055
-0.0564217
-0.0595842
-0.0626948
-0.0657557
-0.0687689
-0.0403685
-0.0434333
-0.0464455
-0.0494092
-0.0523266
-0.0551993
-0.058029
-0.0608173
-0.0346285
-0.0374452
-0.0402159
-0.0429442
-0.0456321
-0.0482812
-0.0508925
-0.0534673
-0.0560072
-0.0293569
-0.0319418
-0.0344878
-0.0369969
-0.0394707
-0.0419101
-0.0443159
-0.0466891
-0.0490309
-0.0245086
-0.0268823
-0.0292226
-0.0315304
-0.0338068
-0.0360521
-0.0382669
-0.040452
-0.0426081
-0.0200663
-0.0222481
-0.0244003
-0.0265235
-0.0286179
-0.0306839
-0.0327218
-0.034732
-0.0367151
-0.0160091
-0.0180166
-0.0199975
-0.0219518
-0.0238797
-0.0257812
-0.0276563
-0.0295053
-0.0313284
-0.0123193
-0.0141693
-0.015995
-0.0177961
-0.0195726
-0.0213241
-0.0230506
-0.024752
-0.0264284
-0.00898436
-0.0106926
-0.0123785
-0.0140415
-0.0156811
-0.0172969
-0.0188886
-0.020456
-0.0219991
-0.00599152
-0.0075732
-0.00913411
-0.0106736
-0.0121908
-0.013685
-0.0151559
-0.0166031
-0.0180263
-0.00332795
-0.00480166
-0.00625442
-0.00768546
-0.00909455
-0.0104813
-0.0118453
-0.013186
-0.014503
-0.00100788
-0.00238412
-0.00374039
-0.00507592
-0.00639024
-0.00768284
-0.00895313
-0.0102005
-0.0114246
0.000973326
-0.000319529
-0.00159331
-0.00284718
-0.00408046
-0.00529248
-0.00648262
-0.00765025
-0.00879486
0.00261209
0.00138815
0.00018273
-0.00100334
-0.00216931
-0.00331449
-0.00443821
-0.00553983
-0.0066188
0.00388502
0.00271549
0.0015641
0.000431692
-0.000681009
-0.00177331
-0.00284454
-0.00389407
-0.00492133
0.00478469
0.00365481
0.00254258
0.00144876
0.000374065
-0.00068079
-0.00171515
-0.00272839
-0.00371994
0.00523767
0.00413416
0.00304825
0.00198061
0.00093181
-9.76135e-05
-0.00110713
-0.00209621
-0.00306439
0.117795
0.098694
0.0806395
0.0628354
0.0441685
0.0253136
0.0068498
-0.0111824
-0.0288014
-0.0459372
-0.0625205
-0.0785373
-0.0939879
-0.108827
-0.122679
-0.136153
-0.148766
-0.16048
-0.171453
-0.181769
0.109519
0.0907173
0.0718783
0.055091
0.0381563
0.0208973
0.00404802
-0.0122318
-0.0280603
-0.0434481
-0.0583382
-0.0726951
-0.0864699
-0.0995629
-0.111796
-0.123811
-0.135259
-0.145993
-0.156096
-0.165644
0.100164
0.0823036
0.0637082
0.0480147
0.032984
0.0175668
0.00235921
-0.0122712
-0.02642
-0.0401676
-0.0534722
-0.0662728
-0.0785135
-0.0901471
-0.101181
-0.112253
-0.122742
-0.132578
-0.141859
-0.150656
0.0903101
0.0738072
0.0562814
0.0418097
0.0285079
0.0148714
0.00122809
-0.0119226
-0.0245758
-0.0368497
-0.0487494
-0.0602297
-0.0712717
-0.0818774
-0.092052
-0.101639
-0.111045
-0.120057
-0.128598
-0.136706
0.0808607
0.0659455
0.049875
0.0366517
0.0248302
0.0127919
0.000607583
-0.0112047
-0.0225362
-0.0335002
-0.0441435
-0.0544376
-0.0643558
-0.0738834
-0.0830001
-0.0916707
-0.100208
-0.108458
-0.116317
-0.123797
0.0722518
0.0589102
0.0444168
0.0324148
0.0218586
0.0112188
0.000377509
-0.0102072
-0.020358
-0.0301557
-0.0396704
-0.0488934
-0.0577978
-0.0663682
-0.0746022
-0.0824968
-0.0902633
-0.097782
-0.10498
-0.111865
0.0645871
0.0526915
0.0397763
0.0289659
0.0195175
0.0100946
0.000471663
-0.00898681
-0.0180768
-0.0268398
-0.0353497
-0.0436164
-0.0516194
-0.059345
-0.0667951
-0.0739791
-0.0810629
-0.0879131
-0.0944906
-0.100814
0.0578573
0.0472625
0.0358584
0.0261973
0.0177386
0.00937334
0.000838239
-0.007596
-0.0157318
-0.0235779
-0.0311996
-0.0386181
-0.0458203
-0.0527918
-0.0595313
-0.066058
-0.0724872
-0.0787314
-0.0847533
-0.0905649
0.052026
0.0426018
0.0325987
0.0240209
0.0164543
0.00901038
0.00143581
-0.00607659
-0.0133544
-0.0203859
-0.0272224
-0.0338913
-0.0403904
-0.0467144
-0.0528621
-0.0588253
-0.0645333
-0.0701709
-0.0756922
-0.0810493
0.0470434
0.0386742
0.0299395
0.0223582
0.0155959
0.00895839
0.00222715
-0.0044628
-0.010971
-0.0172756
-0.0234135
-0.0294099
-0.0352653
-0.0409719
-0.0465222
-0.0519106
-0.0571293
-0.0622788
-0.067333
-0.0722542
0.0428459
0.0354255
0.0278193
0.0211371
0.0150976
0.00916928
0.00317758
-0.00278292
-0.0086029
-0.0142581
-0.0197731
-0.0251686
-0.0304473
-0.0356037
-0.0406332
-0.0455347
-0.0503056
-0.0550083
-0.059624
-0.0641297
0.0393604
0.0327895
0.0261745
0.0202923
0.0148997
0.00959744
0.0042547
-0.00106128
-0.00626829
-0.0113442
-0.0163045
-0.0211654
-0.0259301
-0.0305955
-0.0351579
-0.0396163
-0.0439714
-0.048267
-0.0524828
-0.0566054
0.0365107
0.0306963
0.0249429
0.0197653
0.0149495
0.0102012
0.00542844
0.000680533
-0.00398238
-0.00854211
-0.0130082
-0.0173922
-0.0216971
-0.0259213
-0.0300628
-0.0341222
-0.0381013
-0.0420312
-0.0458843
-0.0496539
0.0342212
0.0290773
0.0240664
0.0195043
0.0152009
0.0109432
0.00667152
0.00242332
-0.00175831
-0.00585962
-0.00988632
-0.0138458
-0.0177397
-0.0215656
-0.0253198
-0.0290024
-0.0326242
-0.0362358
-0.0397699
-0.0432215
0.0324192
0.0278668
0.0234918
0.0194638
0.0156141
0.011791
0.00796021
0.00415125
0.000394494
-0.00330051
-0.00693744
-0.0105214
-0.0140545
-0.0175367
-0.0209681
-0.0243471
-0.0276638
-0.0308801
-0.0340775
-0.0372477
0.0310367
0.0270039
0.023171
0.0196042
0.0161548
0.0127168
0.00927416
0.00585139
0.00246974
-0.000864525
-0.00415361
-0.0074003
-0.010605
-0.0137664
-0.0168821
-0.0199493
-0.0229646
-0.0259237
-0.0288582
-0.0317642
0.030011
0.026433
0.0230606
0.0198906
0.0167933
0.013696
0.0105952
0.00751204
0.0044613
0.00144689
-0.00153247
-0.00447802
-0.00738943
-0.0102653
-0.0131043
-0.0159048
-0.0186655
-0.0213824
-0.0240721
-0.0267326
0.0292851
0.0261038
0.0231215
0.020292
0.0175034
0.0147067
0.0119068
0.00912185
0.00636239
0.00363065
0.000925858
-0.00175229
-0.00440299
-0.00702485
-0.00961653
-0.0121766
-0.0147038
-0.0171958
-0.0196623
-0.0221012
0.0288076
0.0259712
0.0233187
0.0207805
0.0182615
0.0157294
0.0131938
0.0106704
0.00816689
0.00568443
0.00322259
0.000781706
-0.00163708
-0.0040323
-0.00640259
-0.00874666
-0.0110633
-0.0133511
-0.0156156
-0.017855
0.0285324
0.0259947
0.0236206
0.0213311
0.0190467
0.0167466
0.0144426
0.0121482
0.00986911
0.00760596
0.00535861
0.00312777
0.0009148
-0.00127879
-0.00345163
-0.00560246
-0.0077301
-0.00983342
-0.0119158
-0.0139751
0.0284184
0.0261384
0.0239988
0.021921
0.01984
0.0177425
0.0156408
0.0135462
0.0114634
0.0093926
0.007334
0.0052885
0.00325758
0.00124278
-0.00075451
-0.002733
-0.00469153
-0.00662905
-0.00854778
-0.0104451
0.0284292
0.0263702
0.0244275
0.0225295
0.0206238
0.0187024
0.0167764
0.0148557
0.0129438
0.0110411
0.00914793
0.00726535
0.00539485
0.00353797
0.00169604
-0.000129692
-0.0019381
-0.00372815
-0.00550124
-0.00725381
0.0285321
0.0266614
0.0248834
0.0231371
0.0213816
0.0196119
0.0178378
0.0160673
0.0143035
0.0125468
0.0107977
0.00905754
0.00732776
0.00560996
0.00390558
0.002216
0.000542174
-0.00111595
-0.00276264
-0.00438843
0.028698
0.026986
0.0253448
0.0237256
0.0220976
0.0204574
0.0188132
0.0171713
0.0155343
0.0139031
0.0122781
0.0106605
0.00905178
0.00745333
0.00586647
0.00429243
0.00273282
0.00119019
-0.000329603
-0.00183591
0.028901
0.0273209
0.0257918
0.0242779
0.0227565
0.0212255
0.0196909
0.0181579
0.0166288
0.0151044
0.0135856
0.0120736
0.0105697
0.00907538
0.00759206
0.00612105
0.00466373
0.00322155
0.00179686
0.000386621
0.0291176
0.0276446
0.0262056
0.024777
0.023343
0.0219019
0.020458
0.0190153
0.0175758
0.0161407
0.0147107
0.0132871
0.0118712
0.0104643
0.00906774
0.00768278
0.00631068
0.00495276
0.00361084
0.00228399
0.0293264
0.0279369
0.0265675
0.0252055
0.0238405
0.0224709
0.0210994
0.0197293
0.0183621
0.0169992
0.0156414
0.0142899
0.0129461
0.011611
0.0102861
0.00897236
0.00767114
0.00638356
0.00511097
0.00385346
0.0295075
0.0281784
0.0268594
0.0255459
0.0242318
0.0229155
0.0215985
0.020283
0.0189707
0.0176628
0.0163604
0.0150644
0.0137762
0.0124969
0.0112276
0.00996952
0.00872378
0.00749155
0.00627411
0.00507163
0.0296425
0.0283505
0.0270623
0.0257797
0.0244991
0.0232185
0.0219387
0.0206612
0.0193875
0.0181188
0.0168561
0.0156004
0.0143527
0.0131142
0.0118859
0.0106687
0.00946378
0.00827198
0.00709423
0.00593146
0.0297181
0.0284388
0.027159
0.0258844
0.0246136
0.0233451
0.0220791
0.0208167
0.0195595
0.0183086
0.017065
0.0158296
0.0146035
0.0133876
0.0121828
0.01099
0.00981033
0.00864455
0.00749371
0.00635786
0.130333
0.133206
0.136843
0.143497
0.150309
0.159591
0.168404
0.17889
0.187496
0.196359
0.20053
0.202828
0.195414
0.183049
0.149656
0.129878
0.132641
0.136109
0.14242
0.148822
0.157438
0.165435
0.174737
0.18192
0.188837
0.190877
0.19022
0.180316
0.163881
0.134142
0.129356
0.131994
0.135262
0.14119
0.147124
0.155013
0.162119
0.170178
0.175908
0.180923
0.181022
0.177891
0.166516
0.148671
0.122495
0.128763
0.13126
0.134315
0.139823
0.145262
0.152372
0.158562
0.165328
0.169637
0.17277
0.171153
0.165879
0.15365
0.135227
0.110914
0.128094
0.130435
0.133266
0.138323
0.143247
0.149537
0.154808
0.160257
0.163212
0.164533
0.161428
0.154357
0.141538
0.122868
0.0996811
0.127346
0.129515
0.132111
0.136686
0.141079
0.146513
0.150868
0.154997
0.156674
0.156303
0.151915
0.14341
0.130151
0.111572
0.0894502
0.126514
0.128492
0.130847
0.134908
0.138757
0.143308
0.146755
0.149583
0.150061
0.148156
0.142665
0.133078
0.119537
0.101368
0.0804061
0.125594
0.127365
0.129469
0.132991
0.136283
0.139935
0.142489
0.144059
0.143418
0.140165
0.133733
0.123391
0.109747
0.0922149
0.0724751
0.124582
0.126128
0.127976
0.130937
0.133665
0.136413
0.138093
0.138474
0.136798
0.132394
0.125182
0.114371
0.100796
0.0840368
0.065543
0.123475
0.12478
0.126365
0.128751
0.130907
0.132765
0.133593
0.132876
0.13025
0.1249
0.117063
0.106021
0.0926727
0.0767637
0.0595184
0.122272
0.123321
0.124638
0.126442
0.128021
0.129017
0.12902
0.127312
0.123828
0.117725
0.10942
0.0983378
0.0853491
0.0703355
0.0543249
0.12097
0.121753
0.122794
0.124021
0.125019
0.125196
0.124407
0.121823
0.117582
0.110903
0.102283
0.0913105
0.0787889
0.0646946
0.0498889
0.11957
0.12008
0.120837
0.121501
0.121916
0.12133
0.11979
0.116449
0.111558
0.104462
0.0956689
0.084924
0.0729498
0.0597815
0.0461377
0.118072
0.118311
0.118772
0.118898
0.118734
0.117448
0.115208
0.111225
0.105798
0.0984214
0.0895842
0.0791578
0.0677856
0.0555342
0.0429993
0.116479
0.116453
0.116608
0.116227
0.115495
0.113577
0.1107
0.106183
0.100334
0.0927961
0.084025
0.0739861
0.0632476
0.0518907
0.0404041
0.114797
0.114518
0.114357
0.113507
0.112226
0.109745
0.106302
0.101353
0.0951922
0.0875948
0.0789797
0.0693776
0.059286
0.0487899
0.0382862
0.113033
0.11252
0.112036
0.110755
0.108957
0.105979
0.102048
0.0967611
0.0903907
0.0828196
0.0744309
0.0652978
0.0558511
0.0461732
0.0365835
0.111196
0.110473
0.109665
0.107992
0.105717
0.102308
0.0979707
0.0924294
0.0859406
0.0784668
0.070357
0.0617092
0.0528934
0.043985
0.0352387
0.109303
0.108395
0.107268
0.10524
0.102536
0.0987592
0.0940956
0.088377
0.0818475
0.0745276
0.0667328
0.0585738
0.0503651
0.0421732
0.0341994
0.107371
0.106304
0.104872
0.102524
0.0994462
0.0953612
0.0904459
0.0846185
0.0781123
0.070989
0.0635311
0.0558533
0.0482203
0.0406893
0.0334178
0.105423
0.104222
0.102506
0.0998726
0.0964749
0.0921401
0.0870415
0.0811642
0.0747324
0.0678351
0.0607234
0.05351
0.0464158
0.0394886
0.0328507
0.103484
0.102173
0.100201
0.0973154
0.0936515
0.0891212
0.083899
0.0780212
0.0717021
0.0650481
0.0582813
0.0515079
0.0449112
0.0385304
0.0324593
0.101586
0.100184
0.0979894
0.0948849
0.091005
0.0863286
0.0810334
0.0751938
0.0690141
0.0626098
0.0561769
0.049813
0.0436694
0.0377774
0.0322087
0.0997627
0.0982866
0.0959047
0.0926151
0.0885645
0.0837852
0.0784581
0.0726851
0.06666
0.0605022
0.054384
0.0483942
0.0426567
0.0371966
0.0320676
0.0980531
0.0965176
0.0939826
0.0905412
0.08636
0.0815138
0.076186
0.0704977
0.064632
0.0587085
0.052879
0.0472233
0.0418431
0.036758
0.0320082
0.0964992
0.0949167
0.0922614
0.0887004
0.0844229
0.0795381
0.074231
0.0686353
0.0629243
0.0572149
0.0516415
0.0462762
0.0412023
0.0364356
0.0320055
0.0951474
0.0935286
0.0907825
0.0871316
0.0827865
0.0778838
0.0726094
0.0671047
0.0615342
0.0560111
0.0506556
0.045533
0.0407124
0.0362067
0.0320374
0.0940479
0.0924025
0.0895914
0.0858769
0.0814875
0.0765803
0.0713417
0.0659175
0.0604646
0.0550926
0.0499108
0.0449791
0.0403561
0.0360524
0.032084
0.0932555
0.0915921
0.0887384
0.0849831
0.0805675
0.0756627
0.0704551
0.0650925
0.0597261
0.0544629
0.0494042
0.0446065
0.0401215
0.0359585
0.0321291
0.0928287
0.0911563
0.0882801
0.0845042
0.0800758
0.0751746
0.0699856
0.0646581
0.0593391
0.0541348
0.0491417
0.0444152
0.0400028
0.0359143
0.0321592
0.131472
0.134732
0.138474
0.146253
0.153996
0.165698
0.177745
0.193661
0.210558
0.231169
0.25329
0.279156
0.306641
0.337691
0.369841
0.131658
0.134926
0.138684
0.14648
0.154247
0.165972
0.178047
0.193981
0.210896
0.231495
0.253561
0.279463
0.306995
0.338011
0.369954
0.131818
0.13509
0.138862
0.146666
0.154451
0.166184
0.178268
0.194199
0.21102
0.231673
0.253843
0.279479
0.306636
0.337229
0.368635
0.131951
0.135224
0.139008
0.146812
0.154609
0.166337
0.178414
0.194313
0.211188
0.231679
0.253495
0.278888
0.305593
0.335632
0.366128
0.132058
0.135328
0.139124
0.14692
0.154722
0.16643
0.17848
0.194312
0.211011
0.231354
0.252867
0.277872
0.303916
0.333159
0.362389
0.132139
0.135402
0.139209
0.146988
0.154792
0.166474
0.178354
0.194321
0.210736
0.230842
0.25193
0.276414
0.301597
0.329804
0.357417
0.132194
0.135447
0.139263
0.147019
0.154818
0.166479
0.178572
0.194066
0.210297
0.230113
0.250671
0.274514
0.298641
0.325586
0.351234
0.132223
0.135463
0.139286
0.147012
0.154799
0.166409
0.178295
0.193726
0.209703
0.229168
0.249097
0.272181
0.295059
0.320522
0.343861
0.132227
0.135451
0.13928
0.14697
0.154741
0.166233
0.178047
0.193295
0.208957
0.228011
0.247215
0.269424
0.290862
0.31463
0.335322
0.132205
0.13541
0.139243
0.146892
0.154649
0.166057
0.177712
0.192756
0.208063
0.226645
0.245033
0.266253
0.286064
0.307933
0.32565
0.132157
0.135343
0.139178
0.146781
0.15449
0.165863
0.177298
0.192114
0.207026
0.225077
0.242558
0.262677
0.280679
0.300453
0.31488
0.132085
0.135249
0.139085
0.146642
0.154316
0.165534
0.176816
0.191373
0.20585
0.223308
0.2398
0.258708
0.274722
0.292218
0.303052
0.131989
0.135129
0.138963
0.146472
0.154154
0.165159
0.176269
0.190533
0.204539
0.221346
0.236768
0.254355
0.268212
0.283257
0.290208
0.131869
0.134984
0.138814
0.146257
0.153869
0.164738
0.175655
0.189599
0.203099
0.219194
0.233472
0.249628
0.261168
0.273601
0.276393
0.131725
0.134814
0.138638
0.145973
0.153553
0.164269
0.174977
0.188574
0.201535
0.216858
0.229925
0.244538
0.253613
0.263282
0.26165
0.131558
0.134623
0.138433
0.145766
0.153194
0.163752
0.174237
0.187459
0.19985
0.214343
0.226135
0.239092
0.245573
0.25233
0.246015
0.131369
0.13441
0.138233
0.145435
0.152798
0.163186
0.173431
0.186254
0.198042
0.211649
0.222108
0.233297
0.23708
0.240776
0.229517
0.131157
0.134173
0.137989
0.145087
0.152377
0.162586
0.17258
0.184983
0.196139
0.208809
0.217881
0.227187
0.228183
0.228651
0.212184
0.130924
0.133919
0.137711
0.144737
0.15195
0.161987
0.171728
0.183707
0.194208
0.2059
0.213506
0.220802
0.218884
0.215904
0.193881
0.130676
0.133639
0.137385
0.144309
0.151409
0.161224
0.170656
0.182135
0.191902
0.202507
0.20857
0.213704
0.208933
0.20231
0.174178
)
;

boundaryField
{
    inlet
    {
        type            zeroGradient;
    }
    outlet
    {
        type            fixedValue;
        value           nonuniform 0();
    }
    cylinder
    {
        type            zeroGradient;
    }
    top
    {
        type            symmetryPlane;
    }
    bottom
    {
        type            symmetryPlane;
    }
    defaultFaces
    {
        type            empty;
    }
    procBoundary2to0
    {
        type            processor;
        value           nonuniform List<scalar> 
26
(
0.648749
0.626178
0.610588
0.610588
0.586173
0.558846
0.528362
0.496311
0.463893
0.431972
0.401168
0.13126
0.134508
0.138233
0.145986
0.153695
0.165356
0.17735
0.193211
0.210021
0.230574
0.252612
0.278368
0.305751
0.336719
0.36869
)
;
    }
    procBoundary2to3
    {
        type            processor;
        value           nonuniform List<scalar> 
50
(
-0.389461
-0.391869
-0.391869
-0.392395
-0.396982
-0.396982
-0.394888
-0.394888
-0.389746
-0.389746
-0.37713
-0.36069
-0.36069
-0.335893
-0.335893
-0.304512
-0.304512
-0.276258
-0.247463
-0.247463
-0.228387
-0.210467
-0.193828
-0.178018
-0.162925
-0.14869
-0.135365
-0.122872
-0.11116
-0.100224
-0.0900337
-0.0805486
-0.0717368
-0.0635663
-0.0635663
-0.0585138
-0.0513426
-0.0447363
-0.0386717
-0.033126
-0.0280799
-0.0235178
-0.0194255
-0.0157961
-0.0126249
-0.00991597
-0.0076746
-0.0059258
-0.00468926
-0.0040112
)
;
    }
}


// ************************************************************************* //
