/*--------------------------------*- C++ -*----------------------------------*\
  =========                 |
  \\      /  F ield         | OpenFOAM: The Open Source CFD Toolbox
   \\    /   O peration     | Website:  https://openfoam.org
    \\  /    A nd           | Version:  7
     \\/     M anipulation  |
\*---------------------------------------------------------------------------*/
FoamFile
{
    version     2.0;
    format      ascii;
    class       volVectorField;
    location    "135";
    object      U;
}
// * * * * * * * * * * * * * * * * * * * * * * * * * * * * * * * * * * * * * //

dimensions      [0 1 -1 0 0 0 0];

internalField   nonuniform List<vector> 
2125
(
(-0.0147285 0.0111996 -7.62687e-20)
(-0.0134116 0.00973165 2.75979e-20)
(-0.00230256 0.0119164 2.98222e-20)
(-0.011358 0.00798054 -1.87028e-20)
(0.0083676 0.00785227 -1.3905e-20)
(-0.00847624 0.00602424 3.90972e-20)
(0.0217327 0.00346921 -1.09273e-20)
(0.102114 -0.000244873 -6.49056e-21)
(-0.00465827 0.00393741 -1.4405e-20)
(0.0380551 -0.000957281 -8.55824e-20)
(0.136436 -0.00366019 8.93106e-21)
(0.289897 -0.00132894 3.07471e-20)
(0.000215559 0.00179557 -1.57745e-20)
(0.0575726 -0.00514123 3.03922e-20)
(0.175836 -0.00601486 3.96039e-20)
(0.351958 0.00132803 -2.84418e-20)
(0.57309 0.0209357 1.05036e-20)
(0.807165 0.0504693 -6.40265e-20)
(0.00626803 -0.000319528 -2.03672e-20)
(0.0804753 -0.00878473 -6.85373e-21)
(0.22029 -0.00681428 -7.17203e-20)
(0.419013 0.00669807 -1.12053e-20)
(0.655846 0.0339728 -1.1826e-21)
(0.890503 0.0691699 3.83826e-21)
(1.08235 0.102065 6.5745e-21)
(0.0136151 -0.00231497 -5.30914e-21)
(0.106883 -0.011576 2.49168e-20)
(0.269569 -0.00558635 3.50527e-20)
(0.489921 0.0151582 2.19e-20)
(0.738009 0.0500373 -6.48677e-21)
(0.967455 0.0896249 -5.32157e-21)
(1.14154 0.122803 5.23042e-20)
(1.25013 0.143835 6.80072e-21)
(0.0223557 -0.00408329 5.08101e-20)
(0.136822 -0.0131895 3.28771e-20)
(0.32322 -0.00189877 -3.3293e-20)
(0.563253 0.0269167 -6.62029e-21)
(0.817554 0.0688603 3.43025e-21)
(1.03677 0.111392 -1.24947e-20)
(1.19102 0.143594 -2.68433e-20)
(1.27913 0.161806 -4.42543e-21)
(1.31703 0.168417 3.19824e-22)
(1.32525 0.163929 1.04389e-20)
(0.0325624 -0.00550134 6.2552e-21)
(0.170211 -0.0132895 -1.79274e-20)
(0.380562 0.00461963 4.24209e-20)
(0.637421 0.042012 2.75817e-20)
(0.892754 0.0900816 8.13513e-22)
(1.0978 0.134081 1.94129e-20)
(1.23137 0.164242 2.85965e-21)
(1.30055 0.179169 -2.00779e-20)
(1.32519 0.18237 1.66394e-20)
(1.32594 0.176136 3.79274e-23)
(0.0442732 -0.00643158 -4.18861e-20)
(0.206843 -0.01154 -1.23314e-20)
(0.440716 0.0142561 -1.11403e-20)
(0.71081 0.0603353 -1.93344e-20)
(0.962279 0.113311 4.52355e-21)
(1.15034 0.157368 9.36093e-23)
(1.2634 0.184627 1.47449e-20)
(1.31559 0.195979 -2.42396e-21)
(1.32927 0.195888 -1.72036e-20)
(1.32427 0.188067 -1.56379e-20)
(0.0574855 -0.00672554 3.40222e-21)
(0.246388 -0.00761807 1.99556e-20)
(0.50264 0.0271951 9.65468e-21)
(0.781908 0.0816667 -3.01083e-20)
(1.02522 0.138168 -1.4975e-21)
(1.19457 0.181 -1.28341e-20)
(1.28799 0.20469 3.25905e-22)
(1.32531 0.21231 5.92358e-21)
(1.33013 0.209086 -6.43651e-21)
(1.32079 0.19982 1.77458e-20)
(0.0721513 -0.00622884 7.99718e-21)
(0.288387 -0.00123187 -1.95291e-20)
(0.565198 0.0435085 -4.60584e-20)
(0.849398 0.105714 4.23571e-20)
(1.08104 0.164301 -3.14699e-21)
(1.2309 0.20478 9.29687e-21)
(1.30606 0.224407 -1.24819e-21)
(1.33063 0.228243 8.73872e-21)
(1.32842 0.222063 -6.89666e-22)
(1.31584 0.211458 -1.37298e-20)
(0.088175 -0.00478756 -1.62917e-20)
(0.332269 0.00786108 2.54149e-20)
(0.627221 0.0631569 2.09591e-20)
(0.912211 0.132142 -3.01879e-20)
(1.12952 0.191393 -4.98742e-21)
(1.25989 0.228559 1.89956e-21)
(1.31846 0.24378 1.88115e-20)
(1.3323 0.243851 9.13477e-22)
(1.32462 0.234887 3.54254e-21)
(1.30968 0.223016 -7.61293e-21)
(0.105413 -0.00225517 1.23597e-20)
(0.377365 0.0198373 -1.11019e-20)
(0.687578 0.0860001 -9.44577e-21)
(0.969535 0.160598 1.61576e-20)
(1.17068 0.219163 5.56277e-21)
(1.28214 0.252223 4.17295e-21)
(1.32594 0.26282 -1.91587e-20)
(1.33092 0.259192 -6.46205e-21)
(1.31908 0.247603 -5.71085e-21)
(1.30246 0.2345 2.50807e-21)
(0.123674 0.00150015 -6.16754e-21)
(0.422941 0.0347947 -1.40256e-22)
(0.745226 0.111813 1.78759e-20)
(1.02081 0.190725 -6.54297e-21)
(1.20469 0.247361 -2.88194e-21)
(1.29827 0.275681 -1.89041e-21)
(1.32917 0.281538 4.62498e-21)
(1.32697 0.274304 7.89554e-21)
(1.31205 0.260227 -2.52034e-22)
(1.29428 0.245897 2.79432e-21)
(0.142725 0.00658848 4.34669e-21)
(0.468225 0.0527457 -1.2187e-21)
(0.799251 0.140303 -3.20196e-21)
(1.06567 0.222167 -2.89523e-21)
(1.23186 0.275762 2.59497e-21)
(1.30888 0.298856 2.00671e-21)
(1.32871 0.299934 -1.84246e-21)
(1.32081 0.289202 6.54645e-22)
(1.30369 0.272753 9.08553e-22)
(1.28518 0.257173 -1.18801e-21)
(0.162298 0.0130917 2.33748e-21)
(0.512437 0.073616 6.65303e-22)
(0.848886 0.171127 -3.97101e-21)
(1.10396 0.254576 -3.15754e-21)
(1.25255 0.304162 3.27643e-21)
(1.31453 0.321674 6.38515e-22)
(1.32502 0.317997 -1.45722e-21)
(1.31271 0.303879 1.36129e-21)
(1.29411 0.285149 7.46018e-22)
(1.2752 0.268283 -8.38608e-22)
(0.182095 0.0210581 -9.14638e-22)
(0.554823 0.0972475 1.85512e-21)
(0.893521 0.203904 1.22358e-20)
(1.13564 0.287614 -5.41498e-21)
(1.26716 0.332368 -2.63751e-21)
(1.3157 0.34406 -2.94067e-21)
(1.31846 0.335699 5.97449e-21)
(1.30285 0.318307 3.94225e-21)
(1.28337 0.297364 3.10102e-21)
(1.26437 0.279171 1.64744e-21)
(0.201798 0.0304987 1.87218e-20)
(0.594678 0.123406 -1.02645e-20)
(0.932697 0.238229 -1.1661e-20)
(1.16079 0.320951 1.57799e-20)
(1.27608 0.360197 8.23584e-21)
(1.31282 0.365935 -5.38256e-22)
(1.30934 0.352995 -9.92776e-21)
(1.29138 0.332434 -7.09141e-21)
(1.27153 0.309327 -7.21424e-21)
(1.25272 0.289773 4.1998e-21)
(0.221081 0.0413853 -2.53195e-20)
(0.63137 0.151792 2.37371e-20)
(0.966096 0.27368 2.72166e-20)
(1.17956 0.354267 -2.66945e-20)
(1.27971 0.387472 -9.17615e-21)
(1.30628 0.38721 5.80031e-21)
(1.29788 0.369822 1.04134e-20)
(1.2784 0.346189 1.59653e-21)
(1.25862 0.320949 -2.41669e-22)
(1.24024 0.300019 -5.64227e-21)
(0.239616 0.0536497 -3.63391e-21)
(0.66435 0.182048 -3.33662e-20)
(0.993523 0.30983 -3.56148e-20)
(1.19217 0.387251 3.96748e-20)
(1.27845 0.414017 -4.47863e-21)
(1.29641 0.407788 8.04709e-21)
(1.28428 0.386104 1.53252e-21)
(1.26397 0.359486 -4.37005e-21)
(1.24462 0.332133 2.33635e-21)
(1.22682 0.309841 -2.62064e-22)
(0.257086 0.0671855 7.37946e-21)
(0.693162 0.213775 2.06501e-20)
(1.0149 0.346248 1.16762e-20)
(1.19889 0.419604 -9.18853e-21)
(1.27264 0.439657 -1.4051e-20)
(1.28348 0.427563 -1.29313e-20)
(1.26869 0.401753 -2.56045e-21)
(1.24816 0.372243 6.60826e-21)
(1.2295 0.34281 -1.38862e-21)
(1.21226 0.319152 3.11957e-21)
(0.273192 0.0818507 -2.78336e-20)
(0.717453 0.246539 -2.58932e-20)
(1.03023 0.382504 -4.05402e-21)
(1.2 0.451033 -4.59399e-21)
(1.26263 0.464219 -1.02535e-20)
(1.26775 0.446417 6.17755e-21)
(1.25125 0.416666 -1.12955e-21)
(1.23101 0.384382 -5.76497e-21)
(1.21327 0.352993 5.19652e-21)
(1.19648 0.3278 -7.11672e-21)
(0.287659 0.0974712 6.69599e-21)
(0.736968 0.279888 2.19146e-20)
(1.03961 0.418179 1.8901e-20)
(1.19582 0.481258 2.04176e-20)
(1.24876 0.487526 4.87586e-22)
(1.24944 0.464223 1.72715e-20)
(1.23206 0.430726 1.02434e-21)
(1.21259 0.395794 -1.94184e-20)
(1.19603 0.362694 1.35689e-20)
(1.18005 0.335687 4.91805e-21)
(0.300248 0.113845 1.80099e-20)
(0.751549 0.313362 4.00019e-20)
(1.04319 0.452863 -5.3046e-21)
(1.18666 0.510009 -2.5633e-20)
(1.23131 0.509406 1.14679e-20)
(1.22874 0.48085 -1.17211e-20)
(1.21122 0.443811 -1.51191e-20)
(1.19298 0.406346 -1.04015e-21)
(1.17774 0.371622 -1.09488e-20)
(1.16312 0.343 4.07811e-21)
(0.310756 0.130748 8.36852e-21)
(0.761126 0.346502 6.06314e-21)
(1.04118 0.486165 4.92884e-20)
(1.17285 0.537024 9.08319e-21)
(1.21059 0.529688 -7.79501e-21)
(1.20584 0.496161 -3.97788e-21)
(1.18889 0.455795 2.27681e-20)
(1.17221 0.415959 1.82065e-20)
(1.15843 0.379666 8.78439e-21)
(1.14548 0.349489 -1.08713e-21)
(0.319024 0.147938 1.72165e-21)
(0.765708 0.378856 -4.07493e-20)
(1.03385 0.51771 -5.78058e-20)
(1.15476 0.562056 1.65751e-21)
(1.18686 0.548201 1.09378e-20)
(1.18095 0.510009 -1.49626e-20)
(1.16516 0.466549 -3.27152e-20)
(1.15031 0.424519 -9.42489e-21)
(1.13821 0.38673 -5.34971e-22)
(1.12713 0.355075 3.64084e-21)
(0.324933 0.165166 -1.44381e-20)
(0.76538 0.40999 3.61348e-20)
(1.0215 0.54715 3.45672e-20)
(1.13271 0.584871 -3.12849e-20)
(1.16041 0.56477 4.81707e-21)
(1.15424 0.522255 3.49667e-20)
(1.14012 0.475951 -7.05579e-21)
(1.12738 0.431913 6.01349e-21)
(1.11714 0.392722 -2.39149e-21)
(1.1081 0.35966 -3.0383e-21)
(0.328411 0.182175 -3.22437e-20)
(0.760304 0.439484 -5.70507e-20)
(1.00452 0.574178 -1.11109e-20)
(1.10701 0.605245 1.80119e-20)
(1.13147 0.579229 1.69892e-20)
(1.12587 0.53275 -3.43841e-20)
(1.11388 0.483876 1.78817e-20)
(1.10349 0.438033 -8.25816e-21)
(1.09529 0.397548 5.95348e-21)
(1.08847 0.363179 4.4251e-22)
(0.329433 0.198709 2.46353e-20)
(0.750726 0.466932 1.89246e-21)
(0.983248 0.598515 -5.4338e-21)
(1.07793 0.62296 -2.17525e-20)
(1.10033 0.591416 1.32879e-20)
(1.09604 0.541354 3.28349e-21)
(1.08657 0.490206 -9.25387e-21)
(1.07875 0.442777 2.28451e-21)
(1.07273 0.401115 -1.02802e-21)
(1.06833 0.365558 -3.97053e-22)
(0.32804 0.214525 -6.5872e-21)
(0.736963 0.491991 -8.93471e-21)
(0.957825 0.619808 2.31347e-20)
(1.0459 0.63788 1.06476e-20)
(1.06731 0.601159 -1.41333e-20)
(1.06492 0.54795 1.78098e-20)
(1.05834 0.494832 1.7222e-21)
(1.05327 0.446049 2.40156e-21)
(1.04956 0.403326 2.81185e-21)
(1.04775 0.366707 5.19519e-22)
(0.324323 0.229371 4.2375e-20)
(0.719323 0.514504 3.26325e-20)
(0.928462 0.637701 -2.6947e-21)
(1.01137 0.649761 -4.62711e-21)
(1.03264 0.608359 -5.55094e-21)
(1.03271 0.552422 -2.56264e-21)
(1.02931 0.497654 2.34693e-21)
(1.02716 0.447767 9.77459e-22)
(1.02586 0.404088 -2.26123e-21)
(1.02681 0.366532 -4.31233e-21)
(0.318355 0.242898 2.88185e-21)
(0.697906 0.534143 5.27054e-21)
(0.895932 0.652283 -2.86003e-20)
(0.974739 0.658368 1.22033e-20)
(0.996606 0.612899 1.78721e-21)
(0.999595 0.55467 -3.45861e-21)
(0.999646 0.498581 1.60324e-21)
(1.00052 0.447856 1.15649e-21)
(1.00176 0.403335 -4.1502e-21)
(1.00572 0.36498 5.39407e-21)
(0.310127 0.254847 -1.61065e-20)
(0.672934 0.550361 -1.12127e-20)
(0.860784 0.663318 8.3424e-21)
(0.936305 0.663689 1.37291e-21)
(0.959454 0.61468 -5.01296e-21)
(0.965777 0.554599 3.50502e-21)
(0.969476 0.497525 2.63158e-21)
(0.973473 0.44623 -1.03226e-20)
(0.977505 0.401003 2.41513e-20)
(0.985112 0.362085 9.52528e-21)
(0.29987 0.265019 -1.18465e-20)
(0.644962 0.562941 2.72747e-20)
(0.823312 0.670579 -1.64709e-20)
(0.896395 0.665636 -2.97173e-21)
(0.921448 0.61362 -1.50203e-21)
(0.93144 0.552132 -2.297e-21)
(0.938916 0.494403 -8.85626e-21)
(0.94613 0.442759 4.64443e-21)
(0.953513 0.396909 -1.26641e-21)
(0.965663 0.357899 -4.4219e-21)
(0.287829 0.27338 -1.43968e-21)
(0.614423 0.571768 -8.23904e-21)
(0.783929 0.673884 3.291e-21)
(0.855359 0.66413 -9.80908e-22)
(0.882854 0.609659 6.09563e-21)
(0.896769 0.547218 5.2496e-21)
(0.908093 0.489169 1.64925e-20)
(0.918685 0.437341 -1.2175e-20)
(0.930132 0.390687 -2.31295e-20)
(0.946678 0.351797 9.69197e-21)
(0.27414 0.279735 -1.19431e-21)
(0.581765 0.576711 -2.76549e-21)
(0.743059 0.673136 1.08661e-21)
(0.813546 0.659111 8.16548e-21)
(0.843936 0.602757 -1.31742e-20)
(0.861962 0.539827 -2.08439e-20)
(0.877194 0.481819 -6.27156e-21)
(0.891405 0.43009 -1.41216e-21)
(0.907356 0.382507 3.04939e-20)
(0.925391 0.340068 -6.81915e-21)
(0.25902 0.283938 2.46644e-21)
(0.547425 0.577666 -3.86407e-21)
(0.70113 0.668284 -3.39423e-23)
(0.771307 0.650542 6.47751e-22)
(0.804962 0.592888 -8.78224e-21)
(0.827235 0.529933 3.92223e-20)
(0.846474 0.472325 -2.70645e-20)
(0.8645 0.421092 3.23028e-20)
(0.884135 0.374234 -2.27252e-20)
(0.901992 0.333226 -2.99128e-20)
(0.242715 0.285882 -1.90188e-21)
(0.511832 0.574558 -4.09725e-22)
(0.658567 0.659311 2.14114e-22)
(0.728987 0.638418 1.39702e-20)
(0.766198 0.580046 -5.51519e-21)
(0.792815 0.51752 8.42278e-21)
(0.816138 0.460637 1.59496e-20)
(0.837999 0.410078 -8.40463e-21)
(0.860831 0.363775 -2.14511e-20)
(0.879743 0.323072 2.97761e-20)
(0.225478 0.285487 1.17908e-20)
(0.475417 0.567353 1.57234e-20)
(0.61579 0.646232 -1.48197e-20)
(0.686928 0.622758 -1.31722e-20)
(0.72791 0.564245 4.49327e-20)
(0.758921 0.5026 -4.54203e-20)
(0.786338 0.446801 5.41077e-20)
(0.811928 0.397268 -1.36175e-20)
(0.837679 0.35206 1.45782e-20)
(0.858301 0.312522 2.69048e-20)
(0.207568 0.282703 -4.52762e-21)
(0.438606 0.556052 -1.50845e-20)
(0.573206 0.629089 -8.61627e-21)
(0.645462 0.603607 -4.92176e-21)
(0.690363 0.54552 5.16341e-21)
(0.725773 0.485198 -1.16264e-20)
(0.757246 0.430825 -1.62189e-20)
(0.786443 0.382602 -3.49074e-20)
(0.814998 0.338736 3.45567e-20)
(0.837716 0.300566 -1.12622e-20)
(0.189246 0.277509 2.71757e-20)
(0.40182 0.540698 -3.12046e-21)
(0.531214 0.607958 -1.20446e-20)
(0.604912 0.581036 1.57249e-20)
(0.653815 0.523927 -2.82123e-20)
(0.69358 0.465359 7.47549e-20)
(0.729028 0.412758 -3.97543e-20)
(0.761712 0.366159 3.59362e-20)
(0.793007 0.323941 -6.60014e-20)
(0.81802 0.287328 -1.74585e-20)
(0.170772 0.26991 -8.95257e-21)
(0.365471 0.521367 2.87666e-20)
(0.490198 0.582943 6.87547e-21)
(0.565594 0.555139 -1.44658e-20)
(0.618516 0.499542 -2.48786e-20)
(0.662549 0.443144 -1.03025e-21)
(0.701858 0.392651 1.32643e-20)
(0.737899 0.347973 -3.22659e-20)
(0.771861 0.307656 1.59564e-20)
(0.799259 0.272751 2.132e-21)
(0.152404 0.259941 -4.67595e-20)
(0.329956 0.49817 -1.15539e-20)
(0.450527 0.554175 -3.12955e-21)
(0.527806 0.526032 3.71133e-20)
(0.58471 0.472461 -3.43514e-20)
(0.632879 0.418635 -9.00144e-21)
(0.675906 0.370575 -5.40867e-21)
(0.715162 0.328105 1.00785e-20)
(0.751699 0.289925 -1.26033e-20)
(0.781504 0.256873 -1.96861e-20)
(0.134394 0.247661 4.10035e-20)
(0.295656 0.471253 -2.32129e-20)
(0.412553 0.521814 1.19651e-21)
(0.491837 0.493857 -5.61676e-20)
(0.552627 0.4428 6.07935e-20)
(0.604765 0.391926 -1.91988e-20)
(0.651337 0.346612 1.15056e-20)
(0.693646 0.306621 9.9491e-21)
(0.732645 0.270792 2.88642e-20)
(0.764829 0.239741 -1.17729e-20)
(0.116983 0.233155 -1.6732e-20)
(0.262936 0.440792 4.80722e-20)
(0.376608 0.486046 2.7035e-20)
(0.457956 0.458775 4.40278e-20)
(0.522489 0.410691 -1.02198e-20)
(0.578391 0.363131 4.09644e-21)
(0.628309 0.32086 3.28915e-20)
(0.673491 0.283602 7.28396e-21)
(0.714814 0.250323 7.00413e-22)
(0.749312 0.221425 -1.40257e-20)
(0.100403 0.216531 -3.80126e-20)
(0.232135 0.406993 -2.83395e-21)
(0.343005 0.447081 -1.57894e-20)
(0.42642 0.420967 -7.06259e-20)
(0.494502 0.376287 -6.81154e-20)
(0.55393 0.332379 1.13967e-20)
(0.606971 0.293427 -2.79427e-20)
(0.654825 0.25914 1.77345e-20)
(0.698316 0.228595 9.6402e-21)
(0.735028 0.202003 2.02524e-20)
(0.0848726 0.197922 5.54934e-20)
(0.203572 0.370088 -4.53641e-20)
(0.312031 0.405154 -2.29641e-20)
(0.397464 0.380634 4.08121e-20)
(0.468861 0.339756 4.62444e-20)
(0.531546 0.299811 -1.52469e-20)
(0.587463 0.264437 -1.93126e-21)
(0.63777 0.233339 -5.5283e-20)
(0.683255 0.205698 -3.12559e-20)
(0.722049 0.181565 1.18883e-20)
(0.0705925 0.177477 -3.1516e-20)
(0.177538 0.330336 1.32878e-20)
(0.283952 0.360518 4.86611e-20)
(0.371304 0.337995 -2.16903e-20)
(0.445742 0.301281 1.65279e-21)
(0.511389 0.265584 6.1451e-20)
(0.569913 0.234023 2.87007e-21)
(0.622436 0.206313 5.28051e-20)
(0.669727 0.181732 2.20102e-20)
(0.710444 0.160207 -3.49621e-20)
(0.057748 0.155369 4.3376e-20)
(0.154298 0.288018 4.74645e-21)
(0.259006 0.313447 3.12104e-21)
(0.348137 0.293285 4.42568e-20)
(0.425308 0.26106 -5.94407e-21)
(0.493596 0.229867 -3.85123e-20)
(0.554437 0.202331 1.88339e-20)
(0.608927 0.178186 -3.00621e-20)
(0.657821 0.156806 -1.25936e-20)
(0.700273 0.138031 1.27004e-20)
(0.0465041 0.131783 -2.70675e-20)
(0.134088 0.243434 -5.18501e-20)
(0.237406 0.264233 1.19257e-20)
(0.328137 0.246754 -2.33645e-20)
(0.407702 0.219303 -1.41477e-20)
(0.478287 0.19284 3.41547e-20)
(0.541141 0.169516 -8.26589e-21)
(0.597332 0.149093 7.66492e-21)
(0.647616 0.131038 -9.28658e-21)
(0.691594 0.115145 1.83841e-20)
(0.0370057 0.106922 9.72783e-21)
(0.117111 0.196904 3.48412e-20)
(0.219337 0.213182 -4.82889e-20)
(0.311455 0.198662 2.28434e-20)
(0.39305 0.176231 -1.03945e-20)
(0.46557 0.154692 -2.92236e-20)
(0.530115 0.135742 2.38073e-20)
(0.587731 0.119174 5.00954e-21)
(0.639181 0.104553 -7.74644e-22)
(0.684454 0.0916572 -2.13693e-20)
(0.0293754 0.0810016 3.16334e-21)
(0.103541 0.148762 1.1158e-20)
(0.204953 0.160614 4.36023e-20)
(0.298219 0.149283 -8.33519e-21)
(0.381457 0.132077 -6.56418e-21)
(0.455533 0.115622 2.44186e-21)
(0.521436 0.101178 1.03278e-21)
(0.580194 0.0885776 8.87343e-21)
(0.632577 0.0774816 -1.1637e-20)
(0.678893 0.0676857 -7.40249e-21)
(0.023713 0.0542464 -7.93385e-21)
(0.0935182 0.0993555 -1.35854e-20)
(0.19438 0.106857 -3.379e-20)
(0.288533 0.0989006 1.69896e-20)
(0.373008 0.0870784 1.38628e-20)
(0.448251 0.0758333 5.87465e-22)
(0.515167 0.0660014 -2.31323e-20)
(0.574775 0.0574559 -1.02434e-20)
(0.627854 0.0499561 8.14389e-21)
(0.67495 0.0433399 8.6935e-21)
(0.0200942 0.0268903 1.37027e-21)
(0.0871478 0.0490413 -2.82376e-21)
(0.187715 0.0522525 6.42503e-21)
(0.282475 0.0478026 -4.35159e-21)
(0.367769 0.0414813 -3.80883e-21)
(0.443778 0.035538 -2.58552e-21)
(0.511356 0.0303943 4.74824e-21)
(0.571515 0.025966 1.80726e-20)
(0.625046 0.0221099 2.62416e-21)
(0.67264 0.0187078 -4.6464e-21)
(0.280097 -0.00371594 -3.66484e-21)
(0.365785 -0.00446441 3.48766e-21)
(0.442152 -0.00504946 1.57294e-21)
(0.510034 -0.00545758 -1.56746e-21)
(0.570442 -0.00572697 -7.12717e-21)
(0.624164 -0.00589816 2.34471e-21)
(0.671922 -0.0060057 -2.19218e-21)
(1.27022 0.242059 -1.3374e-22)
(1.27918 0.232931 -1.33026e-21)
(1.28745 0.223615 -2.64019e-22)
(1.29502 0.214139 -8.41162e-22)
(1.30183 0.204524 4.66753e-21)
(1.30782 0.19478 -4.41946e-21)
(1.31289 0.184904 2.81284e-21)
(1.31686 0.174872 1.1434e-20)
(1.2576 0.230589 -3.04166e-23)
(1.26635 0.222577 1.13819e-21)
(1.27455 0.214401 9.9738e-22)
(1.28218 0.206082 -4.89041e-21)
(1.28923 0.197637 1.60574e-21)
(1.29567 0.18908 -9.92604e-22)
(1.30143 0.180415 2.77037e-21)
(1.30643 0.171639 -5.39161e-21)
(1.24558 0.218991 3.54734e-22)
(1.2538 0.21195 8.09169e-22)
(1.26163 0.204783 4.72059e-22)
(1.26905 0.197507 2.39533e-21)
(1.27606 0.190139 3.17177e-21)
(1.28264 0.182692 4.6277e-21)
(1.28875 0.175174 -1.29469e-22)
(1.29435 0.167593 8.803e-22)
(1.23477 0.207676 -1.16508e-22)
(1.24237 0.201471 -1.38128e-21)
(1.24966 0.195178 -1.27864e-21)
(1.25667 0.188814 9.39284e-22)
(1.26339 0.18239 -3.57413e-21)
(1.26983 0.175919 -8.32905e-21)
(1.27596 0.169408 3.67919e-21)
(1.28178 0.162866 4.45046e-22)
(1.22509 0.196769 1.4915e-23)
(1.2321 0.191293 6.80652e-22)
(1.23887 0.185748 1.72866e-21)
(1.2454 0.180149 6.50041e-22)
(1.25173 0.174508 -1.34357e-22)
(1.25784 0.168835 2.02776e-21)
(1.26376 0.163137 1.52607e-21)
(1.26947 0.15742 -1.75865e-21)
(1.21622 0.186218 8.15426e-25)
(1.22271 0.181378 7.07649e-22)
(1.22901 0.17648 -1.23211e-21)
(1.23511 0.171536 -9.54952e-22)
(1.24104 0.166555 6.1098e-22)
(1.24679 0.161547 1.33549e-21)
(1.25239 0.156518 -2.36537e-21)
(1.25783 0.151474 -1.11911e-21)
(1.20794 0.175936 6.64364e-23)
(1.21398 0.171658 -7.35705e-22)
(1.21985 0.167331 1.10025e-21)
(1.22557 0.162963 6.93188e-22)
(1.23113 0.158563 1.36858e-21)
(1.23655 0.154139 -5.76446e-22)
(1.24183 0.149698 -3.79577e-21)
(1.24699 0.145246 2.54224e-21)
(1.20012 0.165929 -1.57724e-22)
(1.20575 0.162142 -3.18822e-22)
(1.21124 0.158314 -3.59925e-22)
(1.2166 0.154453 -4.20321e-22)
(1.22184 0.150567 2.32338e-22)
(1.22695 0.146661 1.53372e-21)
(1.23196 0.142742 4.15255e-21)
(1.23686 0.138816 8.61463e-22)
(1.19267 0.156157 7.49237e-23)
(1.19792 0.152805 -1.60295e-23)
(1.20305 0.149419 -1.42721e-22)
(1.20809 0.146006 -6.80803e-22)
(1.21302 0.142572 -1.20789e-21)
(1.21786 0.139122 -1.60769e-21)
(1.22262 0.135663 -1.08327e-21)
(1.22729 0.132196 -1.56578e-21)
(1.18557 0.146598 4.58647e-23)
(1.19046 0.143631 5.6908e-22)
(1.19526 0.140635 4.8852e-23)
(1.19998 0.137616 4.8835e-22)
(1.20462 0.134579 3.15754e-23)
(1.20919 0.131528 -2.23164e-21)
(1.2137 0.128468 -1.514e-22)
(1.21813 0.125402 1.31778e-21)
(1.17874 0.137317 -1.11478e-22)
(1.18329 0.134678 1.42383e-22)
(1.18777 0.132015 -1.59488e-22)
(1.19219 0.129334 -3.18e-22)
(1.19655 0.126638 -4.6525e-22)
(1.20086 0.12393 1.50145e-21)
(1.20512 0.121215 7.18256e-22)
(1.20933 0.118495 -1.23132e-21)
(1.17214 0.128258 3.54733e-23)
(1.17637 0.125908 -4.67166e-22)
(1.18055 0.123538 2.5605e-22)
(1.18468 0.121153 1.8579e-23)
(1.18877 0.118754 5.10872e-22)
(1.19283 0.116345 -5.27457e-22)
(1.19685 0.113929 7.02851e-22)
(1.20083 0.11151 9.55226e-22)
(1.16574 0.119428 2.1667e-23)
(1.16966 0.117332 1.8937e-22)
(1.17356 0.115218 -4.51393e-22)
(1.17742 0.11309 -8.05022e-23)
(1.18125 0.11095 -5.19022e-22)
(1.18505 0.108801 5.82533e-22)
(1.18883 0.106644 -2.22264e-21)
(1.19259 0.104484 -1.34722e-21)
(1.15952 0.11086 -5.22536e-23)
(1.16316 0.108981 5.85839e-23)
(1.16678 0.107087 3.65312e-22)
(1.17038 0.105181 -1.99566e-22)
(1.17396 0.103263 8.37701e-22)
(1.17751 0.101336 -2.97004e-22)
(1.18106 0.0994026 4.39421e-22)
(1.18459 0.0974641 7.64992e-22)
(1.15343 0.102516 4.99872e-23)
(1.15681 0.100831 -1.91211e-23)
(1.16017 0.0991331 -2.88485e-22)
(1.16352 0.0974223 6.76699e-22)
(1.16686 0.0957006 -4.00313e-22)
(1.17018 0.0939696 3.50192e-22)
(1.17349 0.0922308 3.64517e-22)
(1.17679 0.0904858 1.50203e-22)
(1.14751 0.0943905 2.52668e-23)
(1.15064 0.0928817 4.6308e-23)
(1.15376 0.0913588 1.35785e-22)
(1.15687 0.0898231 -4.85404e-22)
(1.15996 0.0882758 -3.21599e-22)
(1.16305 0.0867182 6.48462e-23)
(1.16613 0.0851514 -3.22895e-22)
(1.16921 0.0835768 3.58237e-22)
(1.17228 0.0819956 -1.46636e-21)
(1.14174 0.0865366 -3.753e-23)
(1.14463 0.0851795 -1.0968e-23)
(1.14751 0.0838087 -1.05973e-24)
(1.15039 0.0824252 3.38688e-22)
(1.15325 0.0810299 2.30753e-22)
(1.15612 0.0796237 -1.45811e-22)
(1.15897 0.0782074 -2.91601e-22)
(1.16183 0.0767819 5.01526e-23)
(1.16468 0.0753482 2.23467e-22)
(1.1361 0.0789168 2.51171e-23)
(1.13877 0.0776969 -4.65706e-24)
(1.14143 0.0764635 1.0399e-22)
(1.14408 0.0752175 -1.10868e-22)
(1.14673 0.0739594 -2.58557e-23)
(1.14938 0.0726897 3.10659e-22)
(1.15202 0.071409 1.30684e-22)
(1.15466 0.0701178 -4.25809e-22)
(1.1573 0.0688169 -1.80822e-22)
(1.13062 0.0715439 -2.49767e-23)
(1.13308 0.0704486 -3.20124e-23)
(1.13553 0.0693401 -2.46801e-23)
(1.13797 0.0682189 -1.72319e-23)
(1.14041 0.0670853 -1.84282e-22)
(1.14285 0.0659395 2.02884e-22)
(1.14528 0.0647819 -1.44499e-22)
(1.14771 0.0636128 -3.39419e-22)
(1.15014 0.0624326 5.06652e-22)
(1.1253 0.0644145 -1.09474e-23)
(1.12756 0.0634337 3.07298e-23)
(1.12982 0.06244 -1.16073e-23)
(1.13207 0.0614335 -4.16469e-23)
(1.13431 0.0604145 4.83684e-23)
(1.13655 0.059383 -1.31141e-22)
(1.13878 0.0583392 2.34419e-22)
(1.14101 0.0572831 2.21908e-22)
(1.14323 0.0562148 -3.22759e-23)
(1.12017 0.0575237 1.48902e-23)
(1.12225 0.0566493 -1.76125e-23)
(1.12433 0.0557625 -1.09343e-23)
(1.12639 0.0548632 -4.56944e-23)
(1.12845 0.0539514 1.70193e-23)
(1.1305 0.0530271 4.7627e-23)
(1.13254 0.0520901 -2.39663e-23)
(1.13458 0.0511405 -2.54454e-22)
(1.13661 0.0501781 1.77978e-22)
(1.11527 0.0508628 5.16113e-25)
(1.11718 0.0500892 -1.30929e-23)
(1.11908 0.0493036 -2.15915e-23)
(1.12098 0.0485059 1.42307e-23)
(1.12286 0.047696 6.43594e-23)
(1.12474 0.0468737 -6.80952e-23)
(1.12661 0.0460388 -1.4934e-22)
(1.12847 0.0451912 1.75964e-22)
(1.13031 0.0443306 -2.7314e-22)
(1.11063 0.0444258 -1.05219e-24)
(1.11239 0.0437473 -2.46143e-24)
(1.11414 0.0430579 2.13903e-23)
(1.11587 0.0423571 -4.28339e-24)
(1.1176 0.0416448 -5.30488e-23)
(1.11931 0.0409207 7.79106e-23)
(1.12102 0.0401844 -1.01121e-22)
(1.12271 0.0394357 -6.45677e-23)
(1.12439 0.0386743 2.12957e-22)
(1.1063 0.038186 -2.36614e-24)
(1.10792 0.0376004 7.71263e-24)
(1.10953 0.0370046 1.09995e-23)
(1.11112 0.0363985 -1.16982e-23)
(1.1127 0.0357816 -5.81419e-25)
(1.11427 0.0351537 -6.51338e-23)
(1.11583 0.0345144 -6.89046e-24)
(1.11737 0.0338633 8.13773e-23)
(1.11889 0.0332001 -1.35476e-22)
(1.10235 0.0321208 3.78501e-25)
(1.10384 0.0316268 3.02279e-27)
(1.10533 0.0311235 7.28733e-25)
(1.10679 0.0306107 9.07412e-24)
(1.10825 0.0300883 4.74169e-23)
(1.10968 0.0295558 -3.64086e-23)
(1.1111 0.0290129 2.55262e-23)
(1.1125 0.0284592 2.61547e-24)
(1.11389 0.0278942 -7.63276e-23)
(1.09883 0.0262068 -5.10518e-26)
(1.10022 0.0258018 -6.90844e-26)
(1.10159 0.0253888 1.25044e-24)
(1.10295 0.0249678 -8.87037e-24)
(1.10429 0.0245385 6.96038e-25)
(1.10561 0.0241004 1.19272e-23)
(1.10691 0.0236533 3.12486e-23)
(1.10819 0.0231968 1.2147e-23)
(1.10946 0.0227303 -3.34736e-24)
(1.09582 0.0203988 -1.28802e-24)
(1.09712 0.0200827 5.90753e-25)
(1.0984 0.0197604 -8.286e-25)
(1.09966 0.0194316 3.31469e-24)
(1.10091 0.019096 -9.77344e-24)
(1.10213 0.0187532 1.03473e-23)
(1.10334 0.0184029 1.14043e-23)
(1.10452 0.0180448 -3.26019e-23)
(1.10568 0.0176785 -2.85062e-23)
(1.0934 0.0146333 -3.40999e-25)
(1.09463 0.014406 3.45091e-24)
(1.09584 0.0141743 -1.00473e-24)
(1.09703 0.0139377 -5.41676e-26)
(1.0982 0.0136962 3.35826e-25)
(1.09935 0.0134494 -1.33839e-24)
(1.10048 0.013197 5.52234e-24)
(1.10158 0.0129388 -3.10005e-23)
(1.10266 0.0126743 5.13125e-23)
(1.09168 0.00887438 -2.02892e-26)
(1.09285 0.00873758 -8.92593e-25)
(1.09401 0.00859782 -6.25888e-25)
(1.09515 0.00845492 1.7605e-24)
(1.09627 0.00830873 -1.2795e-24)
(1.09736 0.00815903 -2.33213e-24)
(1.09843 0.00800565 7.0616e-24)
(1.09947 0.00784837 -6.59853e-25)
(1.1005 0.00768698 -9.87151e-24)
(1.09076 0.00295167 -1.78783e-25)
(1.0919 0.00290918 3.9434e-24)
(1.09303 0.00286606 -7.04715e-24)
(1.09413 0.00282215 -1.8212e-24)
(1.09521 0.0027773 3.9501e-24)
(1.09627 0.00273135 3.09661e-24)
(1.09731 0.00268416 9.58362e-26)
(1.09832 0.00263556 -2.62576e-25)
(1.09931 0.00258539 -3.78667e-24)
(0.967586 0.324476 2.14466e-21)
(0.986903 0.324547 -1.59245e-21)
(1.00466 0.325448 4.84747e-21)
(1.02233 0.326157 -1.0009e-21)
(1.0406 0.326283 5.71871e-23)
(1.05878 0.325854 -7.43015e-23)
(1.07651 0.32482 1.21641e-22)
(1.09383 0.323086 -2.59669e-22)
(1.11077 0.320615 9.08917e-23)
(1.12727 0.31742 -2.42016e-21)
(1.14328 0.313523 -1.91757e-21)
(1.15877 0.308961 1.97596e-21)
(1.17381 0.303749 -4.57275e-21)
(1.18812 0.297876 -1.25234e-21)
(1.20188 0.291121 2.35326e-21)
(1.21518 0.283772 -3.14236e-21)
(1.22765 0.276045 5.42401e-22)
(1.23931 0.267992 2.19738e-22)
(1.25027 0.259624 1.1914e-21)
(1.26058 0.250968 1.98332e-22)
(0.981165 0.308943 -3.44978e-21)
(1.0002 0.308807 2.47644e-21)
(1.01765 0.309422 -5.86943e-21)
(1.03345 0.309961 -4.65741e-21)
(1.04954 0.309796 -4.30488e-22)
(1.06578 0.308944 3.03817e-22)
(1.08161 0.307492 -1.67012e-22)
(1.09701 0.305409 7.32151e-22)
(1.11208 0.302672 -1.64322e-21)
(1.1268 0.299308 1.47903e-21)
(1.14114 0.295359 -3.79852e-22)
(1.15503 0.290841 -2.15092e-21)
(1.16849 0.285781 1.78493e-21)
(1.1813 0.280108 -1.23921e-21)
(1.19361 0.273965 3.31361e-22)
(1.20569 0.267437 -7.78446e-22)
(1.21723 0.260573 3.26218e-21)
(1.22814 0.25343 -6.41667e-22)
(1.23849 0.246039 -1.0033e-21)
(1.24831 0.238418 9.65032e-24)
(0.995122 0.29201 -1.77585e-21)
(1.0129 0.292357 -3.62632e-21)
(1.0298 0.292716 1.47754e-21)
(1.04427 0.292865 3.49262e-21)
(1.05854 0.292352 -7.53491e-22)
(1.07314 0.291128 2.4632e-23)
(1.08747 0.289341 -9.40149e-23)
(1.10133 0.287037 6.53716e-22)
(1.11481 0.284199 2.19672e-21)
(1.12796 0.280837 -1.33212e-22)
(1.14074 0.276989 2.60769e-21)
(1.15309 0.272675 -3.9367e-22)
(1.16499 0.267941 -4.38616e-22)
(1.17636 0.262775 1.73793e-22)
(1.18739 0.257385 -2.89061e-21)
(1.19828 0.251589 -1.84865e-21)
(1.20866 0.245477 -1.39048e-21)
(1.21852 0.23914 -3.52233e-22)
(1.22794 0.232606 -7.65938e-22)
(1.23696 0.225884 -3.70564e-22)
(1.0083 0.276493 -3.1951e-21)
(1.02455 0.276843 4.75355e-21)
(1.04039 0.276784 -1.91536e-21)
(1.05366 0.276409 1.04015e-22)
(1.06632 0.275522 -3.63766e-22)
(1.07934 0.274034 5.98344e-22)
(1.09228 0.272044 3.24824e-23)
(1.10478 0.269632 -1.12946e-21)
(1.11687 0.266798 -6.67769e-22)
(1.12866 0.26354 2.28703e-21)
(1.14012 0.259883 -1.36869e-21)
(1.15122 0.255858 2.46403e-21)
(1.16193 0.251513 -1.7685e-22)
(1.17226 0.246858 -1.61386e-21)
(1.1821 0.242022 4.40147e-21)
(1.19166 0.236786 1.91096e-21)
(1.20103 0.231269 -5.3888e-22)
(1.21003 0.225578 7.43699e-22)
(1.21863 0.219745 1.20595e-21)
(1.22686 0.213774 1.40552e-22)
(1.02043 0.261562 5.41918e-21)
(1.03511 0.261605 -3.49187e-21)
(1.04969 0.261114 1.23428e-21)
(1.06182 0.260289 -8.0801e-22)
(1.0731 0.259098 4.25442e-22)
(1.08468 0.257445 -2.64174e-22)
(1.0963 0.255365 1.62943e-23)
(1.10756 0.252931 5.81738e-22)
(1.11842 0.250163 -1.39406e-21)
(1.12898 0.247058 -2.67137e-21)
(1.13926 0.243628 -5.1196e-23)
(1.14924 0.239901 -9.95781e-22)
(1.15888 0.235902 5.62531e-22)
(1.1682 0.231651 -5.90422e-22)
(1.17712 0.227162 -1.29482e-21)
(1.18574 0.2225 5.13133e-23)
(1.19422 0.217642 -3.58919e-22)
(1.20242 0.212612 -1.27862e-21)
(1.21028 0.207445 -4.65558e-22)
(1.21782 0.202158 -5.48922e-23)
(1.03145 0.246792 9.11978e-23)
(1.0446 0.246524 2.68632e-21)
(1.0578 0.245723 7.91817e-22)
(1.06883 0.2446 1.4681e-21)
(1.07892 0.243207 -1.56607e-23)
(1.0892 0.241469 1.37677e-22)
(1.09958 0.239376 -1.32732e-23)
(1.1097 0.236981 2.96478e-22)
(1.11945 0.234315 1.16116e-21)
(1.12891 0.231383 8.41467e-22)
(1.13814 0.228189 6.8545e-22)
(1.14711 0.224754 -5.28743e-23)
(1.15579 0.221096 2.79937e-22)
(1.1642 0.217241 1.27156e-21)
(1.17229 0.213196 -1.03759e-21)
(1.18015 0.209019 -3.16084e-22)
(1.18786 0.204707 8.4686e-22)
(1.19535 0.200251 9.52845e-22)
(1.20256 0.19567 -6.83918e-22)
(1.20951 0.190987 2.70975e-23)
(1.04132 0.232231 -2.69288e-21)
(1.05302 0.23172 -2.13412e-21)
(1.06483 0.23072 4.08825e-22)
(1.07478 0.229415 5.2615e-22)
(1.08382 0.227899 -8.74793e-22)
(1.09294 0.226127 -7.96287e-22)
(1.1022 0.224068 -3.84438e-23)
(1.11126 0.221753 -8.50621e-22)
(1.12001 0.219216 -3.99786e-22)
(1.1285 0.216468 -8.16984e-23)
(1.13677 0.213513 1.746e-22)
(1.14484 0.210366 -4.46207e-22)
(1.15267 0.207043 -7.82338e-22)
(1.16028 0.203563 1.61387e-21)
(1.16763 0.199936 3.63853e-22)
(1.17479 0.196192 -7.09887e-22)
(1.18185 0.192338 -6.67331e-22)
(1.18869 0.188371 2.8205e-22)
(1.19531 0.184304 7.14306e-22)
(1.20172 0.180155 -9.45252e-23)
(1.05 0.218006 2.75752e-21)