/*--------------------------------*- C++ -*----------------------------------*\
  =========                 |
  \\      /  F ield         | OpenFOAM: The Open Source CFD Toolbox
   \\    /   O peration     | Website:  https://openfoam.org
    \\  /    A nd           | Version:  7
     \\/     M anipulation  |
\*---------------------------------------------------------------------------*/
FoamFile
{
    version     2.0;
    format      ascii;
    class       surfaceScalarField;
    location    "205";
    object      phi;
}
// * * * * * * * * * * * * * * * * * * * * * * * * * * * * * * * * * * * * * //

dimensions      [0 3 -1 0 0 0 0];

internalField   nonuniform List<scalar> 
4137
(
0.000932488
6.92695e-05
0.000863219
0.000727566
0.00010593
0.000757289
0.00018566
0.000145062
0.000612227
0.00080868
-0.000477958
-0.00409392
0.000186572
0.000425655
0.000978052
-0.00126944
0.00267397
-0.00578984
-0.0135475
0.000230544
0.000195111
0.00115451
-0.0021934
0.00306647
-0.0077018
0.0061636
-0.0166446
0.0102922
-0.0285913
-0.0420007
0.000277032
-8.19202e-05
0.00133622
-0.00325259
0.00345484
-0.00982042
0.00674237
-0.0199321
0.0108839
-0.0327329
0.0151904
-0.0463071
-0.0587846
0.000325903
-0.000407823
0.00152058
-0.00444727
0.00382862
-0.0121285
0.00724757
-0.0233511
0.0113112
-0.0367965
0.0152972
-0.0502931
0.018673
-0.0621605
-0.0718881
0.000376752
-0.000784575
0.00170408
-0.0057746
0.00417621
-0.0146006
0.00766084
-0.0268357
0.0115671
-0.0407028
0.0151916
-0.0539175
0.0181213
-0.0650903
0.0202997
-0.0740664
0.0219055
-0.0814343
-0.0881086
0.000428869
-0.00121344
0.00188237
-0.0072281
0.00448578
-0.017204
0.00796877
-0.0303187
0.0116542
-0.0443883
0.0148976
-0.0571609
0.0174063
-0.067599
0.0192159
-0.075876
0.0205375
-0.0827559
-0.0891335
0.0215624
0.000481285
-0.00169473
0.00205055
-0.00879736
0.00474643
-0.0198999
0.00816392
-0.0337362
0.011582
-0.0478064
0.0144414
-0.0600203
0.0165611
-0.0697187
0.0180471
-0.077362
0.0191239
-0.0838327
-0.0899759
0.0199662
0.000532836
-0.00222757
0.00220348
-0.010468
0.00494924
-0.0226456
0.00824466
-0.0370316
0.0113652
-0.0509269
0.0138496
-0.0625047
0.0156152
-0.0714843
0.0168176
-0.0785644
0.0176813
-0.0846963
-0.0906542
0.0183596
0.000582238
-0.0028098
0.00233626
-0.012222
0.00508798
-0.0253974
0.00821439
-0.040158
0.0110207
-0.0537333
0.0131473
-0.0646312
0.0145935
-0.0729305
0.015547
-0.0795179
0.016222
-0.0853713
-0.0911816
0.0167494
0.000628171
-0.00343797
0.00244448
-0.0140383
0.00515937
-0.0281123
0.00808031
-0.043079
0.010567
-0.05622
0.0123574
-0.0664217
0.0135169
-0.0740899
0.0142503
-0.0802514
0.0147553
-0.0858762
-0.0915667
0.0151404
0.000669347
-0.00410732
0.00252463
-0.0158936
0.00516308
-0.0307507
0.00785214
-0.045768
0.0100219
-0.0583898
0.0115001
-0.0678999
0.0124023
-0.0749921
0.0129392
-0.0807883
0.0132878
-0.0862248
-0.0918155
0.0135365
0.000704575
-0.0048119
0.00257423
-0.0177633
0.00510128
-0.0332778
0.00754102
-0.0482078
0.00940254
-0.0602513
0.0105928
-0.0690901
0.0112635
-0.0756628
0.0116225
-0.0811473
0.0118246
-0.086427
-0.0919316
0.0119408
0.000732819
-0.00554472
0.00259194
-0.0196224
0.00497809
-0.0356639
0.00715864
-0.0503883
0.00872435
-0.061817
0.0096499
-0.0700157
0.0101114
-0.0761243
0.0103069
-0.0813428
0.0103697
-0.0864897
-0.0919177
0.0103558
0.000753228
-0.00629794
0.0025775
-0.0214467
0.00479898
-0.0378854
0.00671655
-0.0523059
0.00800116
-0.0631016
0.00868375
-0.0706983
0.00895453
-0.0763951
0.00899778
-0.081386
0.0089259
-0.0864179
-0.0917752
0.00878337
0.000765172
-0.00706312
0.00253169
-0.0232132
0.00457025
-0.039924
0.00622576
-0.0539614
0.00724501
-0.0641209
0.00770428
-0.0711575
0.00779961
-0.0764904
0.00769887
-0.0812853
0.00749564
-0.0862146
-0.0915042
0.00722473
0.000768244
-0.00783136
0.0024561
-0.024901
0.00429856
-0.0417664
0.0056964
-0.0553592
0.00646624
-0.0648907
0.00671962
-0.0714109
0.00665184
-0.0764227
0.00641313
-0.0810466
0.00608061
-0.0858821
-0.0911047
0.00568103
0.000762264
-0.00859362
0.00235294
-0.0264917
0.00399055
-0.043404
0.00513764
-0.0565063
0.0056736
-0.0654267
0.00573635
-0.0714737
0.0055154
-0.0762017
0.00514291
-0.0806741
0.00468194
-0.0854212
-0.0905754
0.00415263
0.000747263
-0.00934089
0.00222487
-0.0279693
0.00365265
-0.0448318
0.00455756
-0.0574112
0.00487445
-0.0657436
0.00475983
-0.071359
0.00439381
-0.0758357
0.00389081
-0.0801711
0.00330073
-0.0848311
-0.0899135
0.00263882
0.00072348
-0.0100644
0.00207477
-0.0293206
0.00329089
-0.0460479
0.00396325
-0.0580836
0.00407484
-0.0658551
0.00379426
-0.0710784
0.00329
-0.0753314
0.00266015
-0.0795413
0.00193908
-0.08411
-0.0891091
0.00113469
0.000691368
-0.0107557
0.00190596
-0.0305352
0.00291083
-0.0470528
0.00336078
-0.0585335
0.00327977
-0.0657741
0.00284294
-0.0706416
0.002206
-0.0746945
0.00145289
-0.0787881
0.000607831
-0.0832649
-0.0881426
-0.000358603
0.000651536
-0.0114073
0.00172156
-0.0316052
0.00251756
-0.0478488
0.00275541
-0.0587714
0.00249332
-0.0655121
0.0019085
-0.0700568
0.00114344
-0.0739294
0.00026049
-0.0779052
-0.000702002
-0.0823025
-0.087078
-0.00176664
0.000604713
-0.012012
0.00152454
-0.0325251
0.00211559
-0.0484398
0.00215155
-0.0588074
0.00171878
-0.0650793
0.000993113
-0.0693311
9.69964e-05
-0.0730333
-0.000893892
-0.0769143
-0.00199159
-0.0812048
-0.0858991
-0.00317052
0.00055172
-0.0125637
0.00131769
-0.033291
0.00170898
-0.0488311
0.00155291
-0.0586513
0.000958627
-0.064485
9.57112e-05
-0.0684682
-0.000910241
-0.0720274
-0.0020265
-0.0757981
-0.0032474
-0.0799839
-0.0845944
-0.00455206
0.000493461
-0.0130572
0.00110374
-0.0339013
0.00130124
-0.0490286
0.000962474
-0.0583125
0.000215901
-0.0637384
-0.000771135
-0.0674812
-0.00189868
-0.0708998
-0.00313328
-0.0745635
-0.00447432
-0.0786428
-0.0831638
-0.00590492
0.000430869
-0.013488
0.000885388
-0.0343558
0.000895261
-0.0490385
0.000383909
-0.0578012
-0.000507701
-0.0628468
-0.00161866
-0.0663702
-0.00286181
-0.0696567
-0.00421193
-0.0732133
-0.00567206
-0.0771827
-0.0816089
-0.00722696
0.000364791
-0.0138528
0.000665266
-0.0346563
0.000494252
-0.0488675
-0.000181427
-0.0571255
-0.00121169
-0.0618166
-0.00244264
-0.0651393
-0.00379827
-0.068301
-0.00526152
-0.0717501
-0.00683933
-0.0756049
-0.079932
-0.00851622
0.000296246
-0.0141491
0.000445022
-0.0348051
0.000109879
-0.0485323
-0.000734357
-0.0562813
-0.001896
-0.0606549
-0.00324212
-0.0637931
-0.00470741
-0.0668357
-0.00628146
-0.070176
-0.00797499
-0.0739113
-0.0781369
-0.0097701
0.000227032
-0.0143761
0.000226418
-0.0348045
-0.000289146
-0.0480168
-0.00127237
-0.055298
-0.00255897
-0.0593683
-0.00401642
-0.0623357
-0.00558868
-0.0652635
-0.00727126
-0.0684934
-0.0090779
-0.0721047
-0.0762301
-0.0109848
0.000156979
-0.0145331
2.89806e-05
-0.0346765
-0.000671444
-0.0473164
-0.00179553
-0.0541739
-0.0032002
-0.0579636
-0.00476498
-0.0607709
-0.00644154
-0.0635869
-0.00823029
-0.0667047
-0.0101469
-0.0701881
-0.0742164
-0.0121606
8.14955e-05
-0.0146146
-0.000211088
-0.0343839
-0.00104302
-0.0464844
-0.00230076
-0.0529162
-0.00381902
-0.0564454
-0.00548747
-0.0591025
-0.00726575
-0.0618086
-0.00915812
-0.0648123
-0.0111822
-0.068164
-0.0720919
-0.0133067
-1.66716e-06
-0.0146129
-0.000432407
-0.0339531
-0.00140373
-0.0455131
-0.00278718
-0.0515328
-0.0044145
-0.0548181
-0.00618358
-0.0573334
-0.00806177
-0.0599304
-0.0100561
-0.062818
-0.0121835
-0.0660366
-0.0698533
-0.0144222
-7.03728e-05
-0.0145425
-0.000642659
-0.0333809
-0.00175173
-0.044404
-0.0032546
-0.0500299
-0.00498608
-0.0530866
-0.00685283
-0.0554667
-0.00883027
-0.057953
-0.0109277
-0.0607206
-0.0131469
-0.0638174
-0.067518
-0.0154822
-0.000143312
-0.0143992
-0.000845182
-0.032679
-0.00208611
-0.0431631
-0.00370244
-0.0484136
-0.00553318
-0.0512558
-0.00749427
-0.0535056
-0.00956914
-0.0558781
-0.0117706
-0.0585191
-0.0141075
-0.0614805
-0.0652374
-0.016388
-0.000215313
-0.0141839
-0.00104058
-0.0318537
-0.00240633
-0.0417974
-0.00413019
-0.0466897
-0.00605543
-0.0493306
-0.00810705
-0.0514539
-0.0102735
-0.0537116
-0.0125546
-0.0562381
-0.0149092
-0.0591259
-0.0624396
-0.0177071
-0.000285471
-0.0138984
-0.00122857
-0.0309106
-0.00271204
-0.0403139
-0.00453755
-0.0448642
-0.00655274
-0.0473154
-0.00869063
-0.049316
-0.0109404
-0.0514619
-0.0132968
-0.0538816
-0.0157772
-0.0566455
-0.0596579
-0.0185589
-0.000353393
-0.013545
-0.00140868
-0.0298553
-0.00300295
-0.0387196
-0.00492426
-0.0429429
-0.00702483
-0.0452148
-0.00924488
-0.047096
-0.0115762
-0.0491305
-0.014023
-0.0514349
-0.01662
-0.0540485
-0.056853
-0.0194249
-0.000418795
-0.0131263
-0.00158046
-0.0286937
-0.00327877
-0.0370213
-0.0052901
-0.0409315
-0.00747134
-0.0430336
-0.00976904
-0.0447983
-0.012178
-0.0467216
-0.014708
-0.0489049
-0.0173903
-0.0513663
-0.0539998
-0.0202435
-0.000481434
-0.0126448
-0.00174353
-0.0274316
-0.00353925
-0.0352256
-0.00563494
-0.0388358
-0.0078922
-0.0407763
-0.0102635
-0.042427
-0.0127471
-0.044238
-0.0153557
-0.0462962
-0.0181141
-0.0486079
-0.0510865
-0.0210274
-0.000541088
-0.0121037
-0.00189755
-0.0260751
-0.00378418
-0.033339
-0.00595865
-0.0366614
-0.00828727
-0.0384477
-0.0107281
-0.0399862
-0.0132821
-0.041684
-0.0159634
-0.0436149
-0.0187921
-0.0457792
-0.0481077
-0.0217709
-0.000597555
-0.0115062
-0.00204226
-0.0246304
-0.00401339
-0.0313678
-0.00626115
-0.0344136
-0.00865651
-0.0360524
-0.0111626
-0.0374801
-0.0137828
-0.0390637
-0.0165319
-0.0408658
-0.0194272
-0.0428839
-0.0450627
-0.0224721
-0.000650658
-0.0108555
-0.00217742
-0.0231036
-0.00422674
-0.0293185
-0.00654238
-0.032098
-0.00899986
-0.0335949
-0.0115669
-0.0349131
-0.014249
-0.0363816
-0.0170611
-0.0380538
-0.0200194
-0.0399256
-0.0419531
-0.023129
-0.000700239
-0.0101553
-0.00230285
-0.021501
-0.00442411
-0.0271972
-0.0068023
-0.0297198
-0.00931727
-0.0310799
-0.0119409
-0.0322894
-0.0146805
-0.033642
-0.0175511
-0.0351832
-0.0205687
-0.036908
-0.0387819
-0.0237399
-0.00074616
-0.00940912
-0.00241838
-0.0198288
-0.00460543
-0.0250102
-0.00704086
-0.0272844
-0.00960868
-0.0285121
-0.0122845
-0.0296136
-0.015077
-0.0308495
-0.0180017
-0.0322586
-0.0210744
-0.0338352
-0.0355529
-0.0243035
-0.000788301
-0.00862082
-0.00252389
-0.0180932
-0.00477061
-0.0227635
-0.00725805
-0.0247969
-0.00987405
-0.0258961
-0.0125976
-0.0268901
-0.0154385
-0.0280085
-0.0184127
-0.0292844
-0.0215362
-0.0307117
-0.0322705
-0.0248187
-0.000826559
-0.00779426
-0.00261926
-0.0163005
-0.00491961
-0.0204631
-0.00745384
-0.0222627
-0.0101133
-0.0232366
-0.01288
-0.0241234
-0.0157648
-0.0251237
-0.0187839
-0.0262652
-0.0219536
-0.0275421
-0.0289394
-0.0252846
-0.000860846
-0.00693341
-0.00270441
-0.0144569
-0.00505239
-0.0181151
-0.00762822
-0.0196869
-0.0103265
-0.0205383
-0.0131317
-0.0213182
-0.0160557
-0.0221997
-0.019115
-0.0232059
-0.0223259
-0.0243312
-0.0255648
-0.0257005
-0.000891086
-0.00604232
-0.00277925
-0.0125688
-0.00516891
-0.0157255
-0.00778117
-0.0170746
-0.0105135
-0.0178059
-0.0133526
-0.0184791
-0.0163111
-0.0192412
-0.0194058
-0.0201113
-0.022653
-0.0210839
-0.0221519
-0.026066
-0.000917216
-0.00512511
-0.00284373
-0.0106423
-0.00526916
-0.0133001
-0.0079127
-0.0144311
-0.0106743
-0.0150443
-0.0135426
-0.0156108
-0.0165308
-0.016253
-0.019656
-0.0169861
-0.0229346
-0.0178053
-0.018706
-0.0263805
-0.000939183
-0.00418593
-0.00289779
-0.00868366
-0.0053531
-0.0108448
-0.00802278
-0.0117614
-0.010809
-0.0122581
-0.0137017
-0.0127181
-0.0167148
-0.0132398
-0.0198655
-0.0138354
-0.0231703
-0.0145006
-0.0152325
-0.0266438
-0.000956944
-0.00322898
-0.0029414
-0.0066992
-0.00542072
-0.00836544
-0.00811142
-0.00907068
-0.0109173
-0.0094522
-0.0138298
-0.00980566
-0.016863
-0.0102066
-0.0200343
-0.0106641
-0.0233601
-0.0111747
-0.0117368
-0.0268558
-0.000970465
-0.00225852
-0.00297452
-0.00469514
-0.00547201
-0.00586795
-0.00817861
-0.00636408
-0.0109995
-0.00663132
-0.0139269
-0.0068783
-0.0169753
-0.00715823
-0.0201621
-0.00747726
-0.0235039
-0.007833
-0.00822438
-0.0270163
-0.000979722
-0.00299713
-0.00550696
-0.00822435
-0.0036467
-0.0110554
-0.0038003
-0.0139929
-0.0039408
-0.0170516
-0.00409949
-0.020249
-0.00427982
-0.0236016
-0.00448046
-0.00470061
-0.0271254
-0.00824863
-0.011085
-0.0140278
-0.0170919
-0.0202949
-0.023653
-0.0271823
0.0609866
0.0098079
-0.0604388
0.0615371
0.0113903
0.0620899
0.0129837
0.0626447
0.0145856
0.0632006
0.0161935
0.0637556
0.0178046
0.0643061
0.0194157
0.0210226
0.0632636
0.00925811
-0.0627138
0.063823
0.0108309
0.0643923
0.0124144
0.0649717
0.0140063
0.065561
0.0156042
0.0661596
0.017206
0.0667661
0.0188092
0.0204109
0.0656464
0.00871885
-0.0651072
0.0662025
0.0102749
0.0667762
0.0118407
0.0673681
0.0134143
0.0679787
0.0149937
0.0686079
0.0165768
0.0692556
0.0181615
0.0197458
0.0681732
0.008197
-0.0676513
0.0687172
0.00973089
0.0692846
0.0112733
0.0698765
0.0128223
0.0704941
0.0143761
0.0711381
0.0159327
0.0718092
0.0174905
0.0190473
0.0708453
0.00769144
-0.0703398
0.0713766
0.0091996
0.0719351
0.0107149
0.0725221
0.0122353
0.0731392
0.013759
0.0737876
0.0152843
0.0744686
0.0168095
0.0183326
0.0736558
0.00720089
-0.0731653
0.0741753
0.00868014
0.074725
0.0101652
0.0753061
0.0116541
0.0759202
0.013145
0.0765684
0.0146361
0.0772522
0.0161257
0.017612
0.0766018
0.00672476
-0.0761256
0.0771097
0.00817221
0.0776506
0.00962432
0.0782255
0.0110791
0.0788358
0.0125347
0.0794825
0.0139894
0.0801668
0.0154413
0.0168888
0.0796843
0.00626404
-0.0792236
0.0801798
0.00767669
0.0807111
0.00909304
0.0812792
0.0105111
0.0818849
0.011929
0.0825295
0.0133448
0.0832138
0.014757
0.0161636
0.082905
0.0058192
-0.0824601
0.0833875
0.00719421
0.0839084
0.00857208
0.0844687
0.00995079
0.0850692
0.0113285
0.0857106
0.0127033
0.086394
0.0140737
0.0154376
0.0862689
0.00539078
-0.0858405
0.0867374
0.00672567
0.087247
0.0080625
0.0877984
0.00939942
0.0883922
0.0107346
0.0890293
0.0120663
0.0897101
0.0133928
0.0147123
0.0897776
0.00497898
-0.0893658
0.0902322
0.00627109
0.0907301
0.00756457
0.091272
0.00885752
0.0918585
0.0101481
0.0924902
0.0114347
0.0931676
0.0127154
0.0139886
0.0934422
0.00458451
-0.0930477
0.0938817
0.00583162
0.0943668
0.00707948
0.0948981
0.00832624
0.095476
0.00957014
0.0961012
0.0108095
0.0967741
0.0120425
0.0132677
0.0972664
0.00420789
-0.0968897
0.0976903
0.00540764
0.0981622
0.0066076
0.0986824
0.00780601
0.0992514
0.00900115
0.0998696
0.0101913
0.100537
0.0113749
0.0125503
0.101259
0.00384917
-0.1009
0.101667
0.00499929
0.102125
0.00614918
0.102634
0.00729714
0.103194
0.00844153
0.103804
0.0095807
0.104466
0.010713
0.0118369
0.105428
0.00350838
-0.105087
0.10582
0.00460655
0.106265
0.0057042
0.106763
0.00679966
0.107313
0.00789131
0.107916
0.00897755
0.108572
0.0100568
0.0111276
0.109784
0.0031852
-0.109461
0.110161
0.00422934
0.110593
0.00527261
0.111079
0.00631345
0.11162
0.00735032
0.112216
0.00838172
0.112867
0.00940611
0.113572
0.010422
0.0114279
0.114337
0.00287936
-0.114031
0.114699
0.00386698
0.115118
0.00485361
0.115594
0.00583773
0.116126
0.00681783
0.116716
0.00779245
0.117362
0.00876012
0.118064
0.0097194
0.0106689
0.119102
0.00259002
-0.118812
0.11945
0.00351902
0.119856
0.00444685
0.120322
0.00537208
0.120847
0.00629329
0.12143
0.00720909
0.122072
0.00811809
0.122772
0.00901891
0.00991018
0.124091
0.00231687
-0.123818
0.124425
0.00318478
0.12482
0.00405143
0.125277
0.00491548
0.125795
0.0057756
0.126373
0.00663046
0.127013
0.00747875
0.127712
0.00831916
0.00915039
0.129321
0.00205887
-0.129063
0.129642
0.0028632
0.130027
0.00366625
0.130476
0.00446676
0.130988
0.00526349
0.131563
0.00605519
0.132202
0.00684062
0.132902
0.00761856
0.00838778
0.134809
0.00181495
-0.134565
0.135119
0.00255313
0.135495
0.00329005
0.135937
0.00402455
0.136445
0.00475547
0.137019
0.00548164
0.137657
0.00620193
0.138361
0.00691519
0.0076203
0.140575
0.0015839
-0.140344
0.140875
0.00225324
0.141244
0.00292137
0.141681
0.00358724
0.142187
0.00424979
0.142761
0.00490794
0.143402
0.00556066
0.14411
0.00620688
0.00684559
0.146643
0.00136436
-0.146424
0.146934
0.001962
0.147297
0.00255855
0.147731
0.00315304
0.148237
0.00374449
0.148813
0.00433197
0.149459
0.00491451
0.150175
0.00549117
0.00606102
0.153038
0.00115479
-0.152828
0.153322
0.00167777
0.153681
0.00219976
0.154114
0.00271992
0.154621
0.0032374
0.155202
0.00375135
0.155855
0.00426094
0.156581
0.00476532
0.00526367
0.159789
0.000953559
-0.159588
0.160068
0.00139868
0.160425
0.00184296
0.160859
0.00228568
0.16137
0.00272609
0.161958
0.00316348
0.162622
0.00359712
0.163361
0.00402629
0.00445028
0.166929
0.000758815
-0.166735
0.167205
0.0011227
0.167562
0.00148592
0.168
0.00184785
0.168518
0.00220789
0.169116
0.00256545
0.169794
0.00291992
0.170549
0.00327072
0.00361725
0.174497
0.000568542
-0.174307
0.174772
0.000847585
0.175132
0.00112612
0.175576
0.00140368
0.176104
0.0016798
0.176716
0.00195401
0.17741
0.00222584
0.178186
0.00249484
0.00276055
0.182537
0.000380457
-0.182349
0.182814
0.000570781
0.183179
0.00076077
0.183633
0.000950107
0.184174
0.00113847
0.184803
0.00132553
0.185518
0.00151097
0.186318
0.00169447
0.00187572
0.191099
0.000191825
-0.190911
0.191381
0.000289242
0.191755
0.000386505
0.192222
0.000483444
0.19278
0.000579889
0.19343
0.000675677
0.194171
0.000770639
0.195
0.000864613
0.000957432
0.200247
-0.200055
0.200536
0.200923
0.201406
0.201986
0.202662
0.203432
0.204297
0.050322
-0.0166717
-0.0500383
0.0507837
-0.0159439
0.0512972
-0.0149357
0.051822
-0.0138314
0.0523497
-0.0126883
0.0528814
-0.0115165
0.0534152
-0.0103039
0.0539492
-0.00905027
0.0544835
-0.00776119
0.0550183
-0.00643978
0.0555541
-0.00508785
0.0560916
-0.00370805
0.0566307
-0.00230566
0.0571639
-0.000891791
0.0577296
0.000568924
0.0582707
0.00209779
0.0588099
0.00361337
0.0593509
0.00514008
0.0598936
0.00668194
0.00823824
0.0536331
-0.0171112
-0.0531936
0.054038
-0.0163488
0.0544773
-0.0153749
0.0549336
-0.0142877
0.0553825
-0.0131372
0.0558292
-0.0119632
0.0562807
-0.0107554
0.0567374
-0.00950696
0.0571988
-0.00822265
0.0576659
-0.00690685
0.0581391
-0.005561
0.0586179
-0.00418686
0.0590979
-0.00278569
0.05957
-0.00136386
0.0600979
4.10153e-05
0.0606026
0.00159302
0.0611183
0.00309769
0.061642
0.00461646
0.0621735
0.00615042
0.00769788
0.0570298
-0.0174963
-0.0566447
0.0573846
-0.0167036
0.0577457
-0.015736
0.0581269
-0.0146689
0.0585092
-0.0135195
0.0588891
-0.0123431
0.0592743
-0.0111405
0.0596674
-0.00990005
0.0600675
-0.00862278
0.0604746
-0.00731397
0.0608897
-0.00597602
0.0613133
-0.00461054
0.0617473
-0.00321961
0.0621921
-0.00180868
0.0626203
-0.000387175
0.0631008
0.00111249
0.0635822
0.00261633
0.0640756
0.00412304
0.0645838
0.00564221
0.0071745
0.0605365
-0.017797
-0.0602358
0.0608249
-0.016992
0.0611138
-0.0160248
0.0614199
-0.0149751
0.0617355
-0.0138351
0.0620527
-0.0126603
0.0623756
-0.0114634
0.0627082
-0.0102327
0.0630507
-0.00896531
0.0634028
-0.007666
0.063765
-0.00633828
0.0641382
-0.00498375
0.0645229
-0.00360429
0.0649169
-0.00220267
0.0653167
-0.000787009
0.0657569
0.000672304
0.0662056
0.00216768
0.0666689
0.00365973
0.0671503
0.00516082
0.00667343
0.0641475
-0.018022
-0.0639224
0.064371
-0.0172156
0.0645931
-0.0162469
0.064828
-0.01521
0.0650761
-0.0140832
0.0653307
-0.0129149
0.0655923
-0.0117251
0.0658651
-0.0105054
0.0661505
-0.00925068
0.0664484
-0.00796392
0.0667594
-0.00664924
0.0670842
-0.00530857
0.0674235
-0.00394356
0.0677771
-0.00255636
0.0681426
-0.00115246
0.0685479
0.000267027
0.0689639
0.00175164
0.0694003
0.00322333
0.0698585
0.0047026
0.0061922
0.0678794
-0.0181743
-0.0677271
0.0680371
-0.0173733
0.0681925
-0.0164023
0.0683572
-0.0153747
0.0685368
-0.0142628
0.0687276
-0.0131056
0.0689283
-0.0119258
0.069142
-0.0107191
0.0693709
-0.00947958
0.0696157
-0.00820874
0.0698769
-0.00691044
0.0701554
-0.00558708
0.0704521
-0.00424027
0.0707673
-0.00287156
0.0710997
-0.00148487
0.0714669
-0.000100149
0.0718545
0.00136397
0.072266
0.00281184
0.0727025
0.00426616
0.00572936
0.0717425
-0.0182508
-0.071666
0.0718297
-0.0174605
0.0719165
-0.0164892
0.0720112
-0.0154693
0.0721219
-0.0143736
0.0722481
-0.0132318
0.0723881
-0.0120657
0.0725435
-0.0108745
0.072717
-0.00965303
0.0729097
-0.00840144
0.0731224
-0.00712311
0.073356
-0.00582074
0.0736119
-0.00449614
0.0738915
-0.00315114
0.0741955
-0.00178887
0.0745127
-0.000417357
0.0748765
0.00100019
0.0752644
0.00242391
0.0756802
0.00385033
0.00528394
0.0757389
-0.018249
-0.0757407
0.0757515
-0.0174731
0.0757678
-0.0165054
0.0757926
-0.0154941
0.075835
-0.014416
0.0758966
-0.0132935
0.0759761
-0.0121452
0.0760743
-0.0109727
0.0761933
-0.00977205
0.0763348
-0.00854295
0.0764998
-0.00728806
0.0766891
-0.00601009
0.0769039
-0.00471095
0.0771452
-0.00339239
0.077413
-0.00205672
0.0777051
-0.000709372
0.0780393
0.000665971
0.0784023
0.00206085
0.0787967
0.00345602
0.004857
0.0798684
-0.0181685
-0.0799489
0.0798045
-0.0174092
0.0797489
-0.0164498
0.0797045
-0.0154497
0.0796797
-0.0143912
0.0796774
-0.0132912
0.079697
-0.0121648
0.0797387
-0.0110144
0.0798043
-0.00983769
0.0798956
-0.0086342
0.0800136
-0.00740605
0.0801593
-0.00615576
0.0803336
-0.00488529
0.0805376
-0.0035964
0.0807721
-0.00229122
0.0810361
-0.000973374
0.0813425
0.000359596
0.08168
0.00172335
0.0820521
0.0030839
0.00444896
0.0841322
-0.01801
-0.0842907
0.0839916
-0.0172686
0.0838641
-0.0163223
0.0837513
-0.0153369
0.0836605
-0.0143005
0.0835954
-0.013226
0.0835558
-0.0121252
0.0835419
-0.0110006
0.0835551
-0.00985092
0.0835971
-0.00867615
0.083669
-0.00747798
0.0837719
-0.00625863
0.0839066
-0.00501997
0.0840738
-0.0037637
0.0842741
-0.00249151
0.0845073
-0.00120653
0.0847892
7.77059e-05
0.0851006
0.00141195
0.0854512
0.00273333
0.00405967
0.0885342
-0.0177746
-0.0887696
0.0883176
-0.017052
0.0881186
-0.0161233
0.0879383
-0.0151566
0.0877829
-0.0141452
0.0876561
-0.0130992
0.0875582
-0.0120273
0.0874895
-0.0109319
0.0874512
-0.00981262
0.0874448
-0.00866969
0.0874714
-0.00750464
0.0875323
-0.00631946
0.0876283
-0.005116
0.0877606
-0.00389602
0.0879304
-0.00266129
0.0881381
-0.00141425
0.0883787
-0.000162895
0.088668
0.00112267
0.0889963
0.00240504
0.00369014
0.09308
-0.0174635
-0.0933911
0.0927884
-0.0167605
0.0925187
-0.0158536
0.0922719
-0.0149097
0.0920532
-0.0139265
0.0918658
-0.0129118
0.0917106
-0.0118721
0.091588
-0.0108093
0.0914989
-0.00972356
0.0914447
-0.00861554
0.0914268
-0.00748665
0.091446
-0.00633868
0.0915034
-0.0051734
0.0915998
-0.00399246
0.0917361
-0.0027976
0.0919127
-0.00159081
0.0921269
-0.00037709
0.0923908
0.000858754
0.0926975
0.00209831
0.0033399
0.097776
-0.0170779
-0.0981616
0.0974109
-0.0163953
0.0970716
-0.0155143
0.0967593
-0.0145975
0.0964784
-0.0136455
0.0962316
-0.012665
0.09602
-0.0116605
0.0958441
-0.0106334
0.095705
-0.00958441
0.0956037
-0.00851428
0.0955415
-0.00742446
0.0955194
-0.00631658
0.0955383
-0.0051923
0.0955991
-0.00405321
0.0957024
-0.00290098
0.0958491
-0.00173744
0.0960379
-0.000565912
0.0962761
0.000620509
0.0965598
0.00181462
0.00301
0.10263
-0.0166191
-0.103089
0.102193
-0.0159581
0.101785
-0.0151066
0.101409
-0.0142207
0.101066
-0.0133033
0.100761
-0.0123598
0.100494
-0.0113933
0.100266
-0.0104051
0.100077
-0.00939576
0.0999292
-0.00836645
0.0998233
-0.00731854
0.0997602
-0.00625357
0.099741
-0.00517308
0.0997664
-0.00407861
0.0998372
-0.00297174
0.0999539
-0.00185417
0.100116
-0.000728376
0.100329
0.000407406
0.10059
0.00155378
0.00270043
0.107651
-0.0160882
-0.108182
0.107143
-0.0154502
0.106668
-0.0146319
0.106228
-0.0137807
0.105826
-0.0129009
0.105463
-0.0119971
0.105141
-0.0110715
0.104861
-0.0101249
0.104623
-0.00915819
0.10443
-0.00817254
0.10428
-0.00716934
0.104177
-0.00615002
0.10412
-0.00511604
0.10411
-0.00406887
0.104148
-0.00301003
0.104235
-0.00194114
0.104371
-0.0008642
0.10456
0.000218935
0.104798
0.0013157
0.00241124
0.112848
-0.0154866
-0.11345
0.112271
-0.014873
0.11173
-0.0140912
0.111228
-0.0132782
0.110766
-0.012439
0.110347
-0.0115777
0.109971
-0.0106956
0.10964
-0.00979351
0.109354
-0.00887225
0.109114
-0.00793306
0.108922
-0.0069773
0.108778
-0.00600633
0.108684
-0.00502153
0.108639
-0.00402427
0.108645
-0.00301601
0.108702
-0.00199819
0.108811
-0.000972668
0.108976
5.38133e-05
0.109191
0.00110015
0.00214183
0.118233
-0.0148152
-0.118904
0.117588
-0.0142281
0.116982
-0.0134858
0.116418
-0.0127142
0.115898
-0.0119186
0.115423
-0.0111024
0.114993
-0.0102665
0.114612
-0.00941156
0.114278
-0.00853849
0.113993
-0.00764849
0.113759
-0.00674288
0.113575
-0.00582296
0.113444
-0.00489005
0.113365
-0.00394547
0.11334
-0.00299059
0.113368
-0.00202685
0.113452
-0.00105583
0.113587
-8.17716e-05
0.113781
0.000905975
0.00189217
0.123816
-0.0140751
-0.124556
0.123105
-0.0135166
0.122436
-0.0128167
0.121811
-0.0120896
0.121233
-0.0113404
0.120702
-0.0105718
0.120221
-0.00978466
0.119789
-0.00897957
0.119407
-0.00815736
0.119078
-0.00731924
0.118802
-0.00646645
0.118579
-0.00560024
0.118411
-0.00472183
0.118298
-0.00383251
0.118241
-0.00293354
0.11824
-0.00202629
0.118297
-0.00111217
0.118409
-0.0001939
0.118581
0.000733344
0.00166123
0.129613
-0.0132672
-0.130421
0.128836
-0.0127397
0.128105
-0.012085
0.12742
-0.0114052
0.126785
-0.0107049
0.126199
-0.00998647
0.125665
-0.0092507
0.125184
-0.00849803
0.124756
-0.00772933
0.124382
-0.00694571
0.124064
-0.00614838
0.123802
-0.0053385
0.123598
-0.00451724
0.123451
-0.00368578
0.123363
-0.00284535
0.123334
-0.00199719
0.123364
-0.00114263
0.123454
-0.00028363
0.123605
0.000581893
0.001449
0.135639
-0.0123923
-0.136514
0.134797
-0.0118984
0.134004
-0.0112914
0.13326
-0.0106615
0.132568
-0.0100127
0.131928
-0.009347
0.131343
-0.00866508
0.130812
-0.0079674
0.130338
-0.0072548
0.12992
-0.00652832
0.129561
-0.00578909
0.129261
-0.0050382
0.12902
-0.00427673
0.12884
-0.00350579
0.128721
-0.00272654
0.128664
-0.00194013
0.128669
-0.00114778
0.128737
-0.000351062
0.128868
0.000450707
0.00125449
0.141911
-0.011451
-0.142852
0.141006
-0.0109934
0.140151
-0.0104367
0.139349
-0.00985916
0.1386
-0.00926429
0.137907
-0.00865378
0.13727
-0.00802821
0.136691
-0.00738808
0.13617
-0.00673417
0.135709
-0.00606747
0.135309
-0.00538899
0.134971
-0.00469976
0.134695
-0.00400077
0.134482
-0.00329306
0.134333
-0.00257769
0.134249
-0.00185574
0.134229
-0.00112833
0.134275
-0.000396773
0.134387
0.000338847
0.00107666
0.14845
-0.0104439
-0.149457
0.147482
-0.0100253
0.146566
-0.00952124
0.145706
-0.00899854
0.144901
-0.00846003
0.144155
-0.00790713
0.143467
-0.00734041
0.142839
-0.00676038
0.142273
-0.00616778
0.141769
-0.0055635
0.141328
-0.00494847
0.140952
-0.00432361
0.140641
-0.00368985
0.140396
-0.00304813
0.140218
-0.00239943
0.140107
-0.00174473
0.140064
-0.00108505
0.140088
-0.000421534
0.140182
0.000245318
0.000914422
0.155279
-0.00937102
-0.156352
0.154248
-0.00899463
0.153272
-0.00854545
0.152354
-0.00807988
0.151494
-0.00760008
0.150694
-0.00710723
0.149955
-0.00660187
0.149279
-0.00608454
0.148668
-0.00555589
0.148121
-0.00501672
0.14764
-0.00446787
0.147227
-0.00391017
0.146881
-0.00334445
0.146605
-0.00277158
0.146398
-0.00219241
0.146261
-0.00160785
0.146195
-0.0010188
0.146199
-0.000426269
0.146276
0.00016902
0.000766545
0.162425
-0.00823258
-0.163564
0.161332
-0.00790132
0.160296
-0.00750934
0.159319
-0.00710319
0.158403
-0.00668446
0.15755
-0.00625412
0.156761
-0.00581269
0.156037
-0.00536066
0.15538
-0.00489865
0.154791
-0.00442736
0.15427
-0.0039475
0.15382
-0.00345982
0.15344
-0.00296506
0.153133
-0.00246397
0.152898
-0.00195731
0.152736
-0.00144589
0.152648
-0.000930504
0.152633
-0.000412009
0.152694
0.000108741
0.000631672
0.169918
-0.00702835
-0.171123
0.168762
-0.00674524
0.167666
-0.00641275
0.166631
-0.00606828
0.165659
-0.00571301
0.164753
-0.00534768
0.163913
-0.00497277
0.163141
-0.00458875
0.162439
-0.00419615
0.161807
-0.00379556
0.161247
-0.00338761
0.16076
-0.00297291
0.160347
-0.00255212
0.160009
-0.00212588
0.159746
-0.00169485
0.15956
-0.00125971
0.159451
-0.000821146
0.159419
-0.000379889
0.159464
6.31593e-05
0.000508316
0.177793
-0.00575789
-0.179064
0.176574
-0.00552595
0.175416
-0.00525521
0.174323
-0.00497475
0.173295
-0.00468535
0.172335
-0.00438759
0.171444
-0.00408188
0.170624
-0.00376864
0.169876
-0.00344831
0.169202
-0.00312138
0.168603
-0.00278835
0.16808
-0.00244974
0.167634
-0.00210608
0.167266
-0.0017579
0.166976
-0.00140576
0.166767
-0.0010502
0.166638
-0.000691803
0.166589
-0.000331157
0.166621
3.08421e-05
0.000394839
0.186088
-0.00442059
-0.187425
0.184805
-0.00424273
0.183586
-0.00403607
0.182433
-0.00382197
0.181349
-0.00360094
0.180334
-0.00337338
0.179392
-0.00313965
0.178524
-0.00290007
0.17773
-0.00265499
0.177014
-0.00240478
0.176375
-0.00214984
0.175816
-0.00189056
0.175337
-0.00162734
0.17494
-0.00136061
0.174625
-0.00109079
0.174393
-0.000818306
0.174245
-0.000543603
0.174181
-0.000267141
0.174202
1.01244e-05
0.000289453
0.194848
-0.00301563
-0.196253
0.1935
-0.00289463
0.192218
-0.00275442
0.191005
-0.00260913
0.189863
-0.00245906
0.188794
-0.00230447
0.1878
-0.0021456
0.186883
-0.00198269
0.186044
-0.00181599
0.185285
-0.00164574
0.184607
-0.00147221
0.184012
-0.00129567
0.183502
-0.00111641
0.183076
-0.000934711
0.182736
-0.000750863
0.182483
-0.000565164
0.182317
-0.000377916
0.182239
-0.000189428
0.18225
-4.08462e-07
0.000190113
0.204122
-0.00154215
-0.205596
0.202708
-0.00148057
0.201363
-0.0014092
0.200089
-0.00133524
0.198889
-0.0012588
0.197765
-0.00118002
0.196718
-0.00109904
0.195751
-0.00101596
0.194866
-0.000930914
0.194064
-0.000844027
0.193348
-0.000755439
0.192717
-0.000665286
0.192175
-0.000573714
0.191721
-0.000480867
0.191357
-0.000386898
0.191084
-0.000291956
0.190902
-0.000196205
0.190812
-9.98085e-05
0.190815
-3.17741e-06
9.44048e-05
0.213968
-0.21551
0.212487
0.211078
0.209743
0.208484
0.207304
0.206205
0.205189
0.204258
0.203414
0.202659
0.201993
0.20142
0.200939
0.200552
0.20026
0.200064
0.199964
0.199961
0.0503821
0.00128798
-0.00121911
0.050239
0.00312186
-0.00297874
0.0499919
0.00594989
-0.00570286
0.0497082
0.0076319
-0.00734816
0.0493293
0.0104356
-0.0100567
0.0489453
0.011942
-0.011558
0.0484778
0.0148011
-0.0143336
0.0480626
0.0163028
-0.0158876
0.0475931
0.0193806
-0.0189111
0.0472934
0.0208999
-0.0206002
0.0469828
0.0242937
-0.0239831
0.0470727
0.0255126
-0.0256025
0.0471653
0.0293122
-0.0294048
0.0481801
0.0292634
-0.0302782
0.0334246
-0.0352829
0.0528522
0.00135704
0.0527119
0.00326213
0.0524653
0.00619655
0.0521907
0.0079065