/*--------------------------------*- C++ -*----------------------------------*\
  =========                 |
  \\      /  F ield         | OpenFOAM: The Open Source CFD Toolbox
   \\    /   O peration     | Website:  https://openfoam.org
    \\  /    A nd           | Version:  7
     \\/     M anipulation  |
\*---------------------------------------------------------------------------*/
FoamFile
{
    version     2.0;
    format      ascii;
    class       volVectorField;
    location    "210";
    object      U;
}
// * * * * * * * * * * * * * * * * * * * * * * * * * * * * * * * * * * * * * //

dimensions      [0 1 -1 0 0 0 0];

internalField   nonuniform List<vector> 
8500
(
(-0.00168616 0.0446541 1.04935e-21)
(-0.00757751 0.117144 -2.99856e-21)
(-0.0186962 0.174462 -3.48762e-21)
(-0.0330328 0.21589 3.46157e-21)
(-0.0491827 0.244552 -3.18409e-21)
(-0.0653317 0.265592 -1.70287e-21)
(-0.0797954 0.283639 2.92874e-21)
(-0.0915115 0.301233 3.66051e-21)
(-0.0996782 0.31854 -6.14395e-22)
(-0.103254 0.333665 1.83342e-21)
(-0.00295037 0.0457629 -1.15761e-21)
(-0.00956119 0.120525 3.56557e-21)
(-0.0191349 0.180005 -8.33301e-21)
(-0.030849 0.223058 7.53985e-21)
(-0.0437397 0.252433 3.36038e-22)
(-0.0562665 0.273154 5.55335e-21)
(-0.0667898 0.29001 -9.70516e-21)
(-0.0740708 0.305858 -1.4356e-20)
(-0.0771091 0.321194 -2.8656e-21)
(-0.0739906 0.334276 6.61366e-21)
(-0.0042591 0.0459275 1.06606e-21)
(-0.0117555 0.12192 7.81124e-21)
(-0.0199169 0.183111 1.83428e-20)
(-0.0289875 0.227708 -1.65468e-20)
(-0.0384198 0.257906 -3.72012e-21)
(-0.0469662 0.278442 -3.41212e-21)
(-0.0530651 0.294142 1.74572e-20)
(-0.0553191 0.30812 1.09852e-20)
(-0.0526025 0.321216 2.77285e-21)
(-0.0419286 0.332098 -2.0488e-20)
(-0.00553333 0.045213 3.78288e-21)
(-0.0140399 0.121382 -4.59851e-21)
(-0.0209862 0.183746 -3.40915e-20)
(-0.0274964 0.22972 3.01934e-21)
(-0.0333826 0.260795 9.32375e-21)
(-0.0376997 0.281259 -7.24544e-21)
(-0.039008 0.295851 -4.51734e-22)
(-0.0357886 0.307861 -2.9859e-21)
(-0.0268103 0.318455 6.92073e-21)
(-0.00805424 0.326911 2.05183e-20)
(-0.0067069 0.0437207 2.64008e-21)
(-0.0163059 0.119035 -1.46572e-20)
(-0.0222863 0.181953 3.51232e-20)
(-0.0264143 0.229033 -1.58671e-20)
(-0.0287821 0.260962 -8.00484e-23)
(-0.0287375 0.28144 2.19124e-20)
(-0.0250089 0.294982 -1.01593e-20)
(-0.0160152 0.304967 1.28075e-21)
(-0.00051866 0.312859 -4.21202e-21)
(0.0267222 0.318392 1.39183e-21)
(-0.00772994 0.0415783 3.13026e-20)
(-0.0184616 0.115067 3.76296e-20)
(-0.0237643 0.177857 -9.60893e-21)
(-0.0257738 0.22566 1.82102e-20)
(-0.0247614 0.258322 5.64117e-21)
(-0.0203412 0.278851 -8.16582e-21)
(-0.011451 0.291408 -3.11682e-21)
(0.00349641 0.29936 -1.37823e-20)
(0.02552 0.304424 2.95318e-21)
(0.0614873 0.306592 -1.89987e-20)
(-0.00857298 0.0389364 -3.01438e-20)
(-0.020441 0.109724 -1.95589e-20)
(-0.0253761 0.171655 1.58011e-20)
(-0.0255996 0.219685 -2.71212e-20)
(-0.0214457 0.252849 2.98427e-21)
(-0.0127503 0.273397 3.16349e-20)
(0.00130659 0.28503 -5.65256e-21)
(0.0222841 0.290992 3.82269e-20)
(0.0506695 0.293176 -7.35488e-22)
(0.0954639 0.291623 -1.6074e-20)
(-0.00922933 0.0359593 2.50207e-20)
(-0.0222107 0.103297 -4.47959e-20)
(-0.0270926 0.163615 -1.76449e-20)
(-0.0259077 0.211275 2.07809e-20)
(-0.0189332 0.244584 5.5769e-22)
(-0.00616562 0.265031 -5.91233e-20)
(0.0129532 0.275773 -3.40342e-21)
(0.0399545 0.279835 -2.9571e-20)
(0.0744116 0.279179 -3.89621e-20)
(0.128113 0.273537 2.35206e-20)
(-0.00971601 0.0328162 -1.40348e-20)
(-0.0237733 0.0961069 6.66478e-21)
(-0.0289024 0.154063 1.63402e-20)
(-0.0267027 0.20067 -1.42254e-20)
(-0.0172829 0.233648 -5.02815e-20)
(-0.000727181 0.253766 1.74537e-20)
(0.0232581 0.263597 2.67607e-21)
(0.0562247 0.265884 4.40156e-20)
(0.0963738 0.262527 5.92331e-20)
(0.159236 0.252359 -2.73663e-20)
(-0.0100729 0.0296725 2.17792e-20)
(-0.0251673 0.0884853 1.95987e-20)
(-0.0308111 0.143368 -2.79723e-21)
(-0.0279719 0.188183 7.1354e-20)
(-0.0164981 0.220243 3.01755e-20)
(0.00351729 0.239694 2.2582e-20)
(0.0321194 0.248516 3.1927e-20)
(0.0709923 0.249162 -1.44943e-20)
(0.116414 0.243326 -1.97006e-20)
(0.189176 0.228126 -3.29438e-20)
(-0.0103602 0.0266825 -2.15194e-21)
(-0.0264618 0.0807582 -3.06324e-20)
(-0.0328343 0.131921 -2.19162e-20)
(-0.029673 0.174188 -3.50121e-20)
(-0.016501 0.204664 -2.75034e-20)
(0.00665799 0.223003 2.75297e-20)
(0.0396417 0.230627 -2.64245e-20)
(0.0844522 0.22976 -1.86035e-20)
(0.134795 0.221694 2.39034e-21)
(0.219167 0.200991 8.84246e-21)
(-0.0106528 0.0239814 -5.90475e-20)
(-0.0277457 0.0732273 2.80551e-20)
(-0.0349832 0.120121 2.02751e-20)
(-0.0317126 0.159107 1.33502e-20)
(-0.0170965 0.187294 -2.40244e-20)
(0.00898838 0.203998 -2.0405e-20)
(0.0462502 0.210147 2.94777e-20)
(0.0972712 0.2079 -2.40088e-20)
(0.152499 0.197768 -1.08359e-21)
(0.251783 0.171456 -2.59344e-20)
(-0.0110335 0.0216783 4.8959e-20)
(-0.0291108 0.0661539 1.9647e-20)
(-0.0372413 0.108347 1.16309e-21)
(-0.0339152 0.143393 -2.44022e-20)
(-0.0179223 0.168603 1.89435e-21)
(0.0110899 0.183121 2.62814e-20)
(0.0528381 0.187466 -7.44806e-21)
(0.110794 0.184003 -9.01192e-21)
(0.171654 0.171739 -2.13249e-20)
(0.291134 0.140697 3.94356e-20)
(-0.0115815 0.0198487 3.24786e-20)
(-0.0306288 0.0597433 -5.29211e-20)
(-0.0395352 0.0969421 -4.03176e-20)
(-0.0359848 0.127511 1.74669e-20)
(-0.0183929 0.149136 3.51293e-20)
(0.0139231 0.160955 2.91439e-20)
(0.0609137 0.163179 -3.10192e-20)
(0.127202 0.158732 6.06347e-20)
(0.195921 0.143969 -1.82077e-20)
(0.342329 0.110613 -4.61743e-20)
(-0.012361 0.0185287 -4.92095e-20)
(-0.0323269 0.0541323 2.94967e-20)
(-0.041703 0.0861954 -1.37068e-20)
(-0.0374676 0.111912 1.4543e-21)
(-0.0176514 0.129493 1.45002e-20)
(0.0188915 0.138213 -4.61139e-20)
(0.0726736 0.138106 4.07303e-20)
(0.149496 0.132971 -3.96122e-20)
(0.230447 0.115221 6.53739e-20)
(0.409748 0.0834819 2.42613e-20)
(-0.0134084 0.0177102 1.01673e-20)
(-0.0341641 0.0493769 5.65653e-20)
(-0.0434712 0.07632 -1.40053e-20)
(-0.0377314 0.097008 1.41572e-20)
(-0.0145566 0.110287 1.60421e-20)
(0.0278304 0.115701 -4.75836e-21)
(0.0909034 0.11327 3.45072e-20)
(0.181198 0.107727 1.5004e-21)
(0.281044 0.0870155 -4.21787e-20)
(0.494575 0.06134 5.75235e-20)
(-0.0147206 0.0173354 -2.74583e-20)
(-0.0360168 0.0454471 -5.34336e-20)
(-0.0444466 0.0674406 4.61198e-20)
(-0.0359752 0.0831344 2.28202e-20)
(-0.00773081 0.0920934 -1.04861e-19)
(0.0428742 0.094244 8.46345e-20)
(0.118642 0.0898051 -7.60044e-20)
(0.225798 0.083973 9.90492e-22)
(0.352418 0.0617663 -1.78076e-20)
(0.593082 0.0454576 -5.3581e-20)
(-0.016246 0.0173008 2.35127e-20)
(-0.0376691 0.042226 -3.11621e-21)
(-0.044133 0.0595825 -1.13184e-20)
(-0.0312801 0.0705196 -1.40825e-21)
(0.00431753 0.0753872 -6.55944e-21)
(0.0661946 0.0745883 -2.69544e-20)
(0.158627 0.0688027 1.1431e-20)
(0.286068 0.0625772 -1.80056e-20)
(0.445896 0.0423207 5.25658e-21)
(0.697152 0.0362077 1.32565e-21)
(-0.0178897 0.0174677 -4.7975e-20)
(-0.0388255 0.0395235 -3.38157e-21)
(-0.0419603 0.0526666 5.19598e-21)
(-0.0226936 0.0592566 2.13026e-21)
(0.0230188 0.0604889 3.42622e-20)
(0.099668 0.0573114 -9.90215e-20)
(0.21269 0.0511243 6.63219e-20)
(0.363396 0.0444474 -4.96338e-20)
(0.55781 0.0308783 4.32358e-20)
(0.797684 0.0324473 4.90444e-20)
(-0.0195198 0.0176774 -5.78394e-21)
(-0.0391458 0.0371076 2.66708e-20)
(-0.0373241 0.0465078 -3.32295e-20)
(-0.00931987 0.0493014 -1.03402e-20)
(0.0495648 0.0475468 1.97954e-20)
(0.144572 0.0427783 9.43103e-20)
(0.281325 0.0372692 -1.88035e-20)
(0.457085 0.0307558 8.9921e-21)
(0.679701 0.0277103 -4.96446e-20)
(0.889765 0.0299569 2.30201e-20)
(-0.0209741 0.0177728 -1.74732e-20)
(-0.0382633 0.0347114 -1.35957e-20)
(-0.0296477 0.0408514 3.40638e-21)
(0.00960834 0.0405087 1.30312e-20)
(0.0847894 0.0365673 -3.842e-20)
(0.201411 0.0311803 -1.53988e-20)
(0.363602 0.0274197 -4.8392e-20)
(0.563694 0.0228056 4.98672e-20)
(0.800362 0.0300108 5.36114e-20)
(0.974487 0.0221401 -2.33451e-20)
(-0.0220781 0.0176083 -8.36847e-21)
(-0.0357953 0.0320673 3.40265e-20)
(-0.0184116 0.0354363 -3.78639e-20)
(0.0346867 0.0326853 -4.44598e-21)
(0.129132 0.0274863 -1.78047e-20)
(0.269885 0.0226282 3.83845e-20)
(0.457379 0.0216616 4.9113e-20)
(0.677288 0.0210894 -4.72365e-20)
(0.910096 0.0325953 5.09524e-20)
(1.08337 0.0190856 7.03135e-21)
(-0.0226495 0.0170653 -2.43029e-20)
(-0.0313764 0.0289658 -6.88252e-20)
(-0.00315541 0.0300369 6.70703e-20)
(0.0663447 0.0256615 9.59167e-21)
(0.182664 0.0202618 1.38098e-20)
(0.348942 0.0172363 8.72058e-21)
(0.559449 0.0200881 3.79099e-20)
(0.790879 0.0244404 2.7834e-20)
(1.01231 0.0375803 -9.91696e-20)
(1.17334 0.0278658 -4.89757e-20)
(-0.0225223 0.016089 -8.30136e-20)
(-0.0246492 0.0252777 1.66642e-20)
(0.0165276 0.0245098 -3.80885e-20)
(0.104869 0.0193644 7.36365e-21)
(0.245125 0.014958 1.16663e-20)
(0.436856 0.0151596 -8.4245e-20)
(0.665745 0.0226569 3.73569e-20)
(0.899311 0.0316995 -2.50552e-20)
(1.10281 0.0460157 2.6378e-20)
(1.24105 0.0386095 -9.28608e-21)
(-0.0215626 0.0146669 3.01182e-20)
(-0.0152809 0.0209595 3.26569e-20)
(0.0410028 0.0188438 -1.97519e-21)
(0.15042 0.0138763 -1.03823e-20)
(0.315917 0.0117911 2.62867e-22)
(0.531283 0.0165532 6.40945e-22)
(0.771942 0.0290762 -5.66665e-20)
(0.998736 0.0420347 7.35683e-21)
(1.17914 0.0566253 7.08874e-20)
(1.29436 0.0506927 3.22586e-20)
(-0.0196391 0.0128223 -2.04785e-20)
(-0.00296861 0.0160799 -1.50733e-20)
(0.0705876 0.0131773 6.51585e-20)
(0.203012 0.00945733 1.68558e-21)
(0.394056 0.0111101 -2.74364e-20)
(0.629381 0.0214863 7.30424e-20)
(0.874076 0.0388621 1.61103e-20)
(1.08664 0.0546464 1.06966e-21)
(1.24162 0.0687162 -3.10678e-20)
(1.33292 0.0634068 -4.06887e-20)
(-0.0166301 0.0106166 4.313e-20)
(0.0125689 0.0108061 -1.19071e-20)
(0.105536 0.00779366 -7.17158e-21)
(0.262467 0.0065287 -2.71555e-20)
(0.478114 0.0133114 4.4333e-20)
(0.728044 0.0298722 -2.15632e-20)
(0.968986 0.0514328 -2.44168e-20)
(1.16196 0.0688694 -5.66069e-21)
(1.29091 0.0816905 -1.79491e-20)
(1.36044 0.0762265 1.96363e-20)
(-0.0124207 0.00814008 -1.5839e-20)
(0.0315837 0.00538785 -9.46619e-20)
(0.146005 0.00309914 9.81373e-21)
(0.328329 0.0056166 3.40362e-20)
(0.566214 0.0187216 2.42677e-20)
(0.824254 0.0414559 -8.0921e-20)
(1.05453 0.066201 5.18413e-20)
(1.22467 0.0841603 -2.34621e-20)
(1.32864 0.0951341 3.54718e-20)
(1.37884 0.0890863 9.81401e-21)
(-0.00689982 0.00550228 -1.75141e-20)
(0.0542837 0.000138474 3.35316e-20)
(0.192009 -0.000413236 4.4013e-20)
(0.399802 0.00726829 -3.14943e-20)
(0.65615 0.0275053 1.17347e-20)
(0.915403 0.0558604 -7.13716e-20)
(1.12957 0.0826296 -1.31926e-20)
(1.2755 0.100107 1.117e-20)
(1.35648 0.108797 -2.70234e-20)
(1.39035 0.101864 -2.75025e-20)
(3.79875e-05 0.00282682 -2.27636e-20)
(0.0808127 -0.00458358 -7.82489e-21)
(0.24337 -0.00220668 -8.0045e-20)
(0.475721 0.0119609 -1.25949e-20)
(0.745596 0.0396348 -1.2918e-21)
(0.999515 0.0726521 4.29284e-21)
(1.19378 0.100263 7.26425e-21)
(1.31562 0.116416 -3.52848e-20)
(1.37617 0.122532 6.42485e-22)
(1.39658 0.114593 1.89884e-20)
(0.00848759 0.000248596 -5.99753e-21)
(0.111229 -0.00839147 2.77543e-20)
(0.299683 -0.00174621 3.91818e-20)
(0.554605 0.02003 2.45562e-20)
(0.832354 0.0549191 -7.22586e-21)
(1.0753 0.0913971 -6.046e-21)
(1.24747 0.118735 5.95249e-20)
(1.34636 0.132894 8.00951e-21)
(1.38927 0.136279 2.66517e-20)
(1.39889 0.127296 -1.14757e-20)
(0.0185249 -0.00208688 5.72817e-20)
(0.145483 -0.0108843 3.69838e-20)
(0.360295 0.00145718 -3.75743e-20)
(0.634765 0.0316358 -7.50051e-21)
(0.914558 0.0730613 3.95662e-21)
(1.14211 0.111697 -1.42782e-20)
(1.29134 0.137768 -3.06756e-20)
(1.36911 0.149427 -5.01081e-21)
(1.39715 0.150028 3.52378e-22)
(1.39828 0.140025 1.24547e-20)
(0.0301981 -0.00402444 7.20285e-21)
(0.183404 -0.0116608 -2.02447e-20)
(0.424322 0.0078077 4.80167e-20)
(0.714457 0.0467708 3.1289e-20)
(0.990775 0.0937132 1.01433e-21)
(1.19979 0.133204 2.20917e-20)
(1.3263 0.157159 3.21937e-21)
(1.38516 0.165958 -2.31959e-20)
(1.4009 0.163796 1.95754e-20)
(1.39547 0.152818 2.17936e-24)
(0.0435194 -0.00540065 -4.75036e-20)
(0.224684 -0.0103344 -1.40025e-20)
(0.490687 0.0175964 -1.2625e-20)
(0.792033 0.0652916 -2.20184e-20)
(1.06003 0.116515 5.23024e-21)
(1.24857 0.155626 1.12613e-22)
(1.35335 0.176769 1.69918e-20)
(1.39566 0.182469 -2.7677e-21)
(1.40142 0.177614 -2.01942e-20)
(1.39099 0.165705 -1.87559e-20)
(0.058458 -0.00604655 3.87819e-21)
(0.268885 -0.0065494 2.27677e-20)
(0.558186 0.0309869 1.1076e-20)
(0.866048 0.0869596 -3.4515e-20)
(1.12175 0.141117 -1.69592e-21)
(1.28892 0.178724 -1.47872e-20)
(1.37349 0.196503 3.7702e-22)
(1.40157 0.198962 6.86427e-21)
(1.39938 0.19151 -7.61192e-21)
(1.38518 0.1787 2.12397e-20)
(0.0749353 -0.0057921 9.15585e-21)
(0.315438 8.18805e-07 -2.23617e-20)
(0.625565 0.0480161 -5.28348e-20)
(0.935323 0.111475 4.86514e-20)
(1.1757 0.167194 -3.61641e-21)
(1.32146 0.202303 1.06791e-20)
(1.38763 0.2163 -1.47092e-21)
(1.4037 0.215448 1.02026e-20)
(1.39527 0.205503 -7.70831e-22)
(1.37828 0.191798 -1.64563e-20)
(0.092823 -0.004472 -1.86979e-20)
(0.363666 0.00955678 2.91886e-20)
(0.691596 0.0686045 2.40707e-20)
(0.998962 0.138505 -3.47641e-20)
(1.2219 0.194445 -5.76769e-21)
(1.34684 0.226202 2.1835e-21)
(1.3966 0.236115 2.19071e-20)
(1.40271 0.231937 1.08672e-21)
(1.38946 0.219599 4.23094e-21)
(1.37043 0.20498 -9.10301e-21)
(0.111943 -0.00193247 1.41919e-20)
(0.41281 0.0222791 -1.27753e-20)
(0.755135 0.0925742 -1.09235e-20)
(1.05634 0.167699 1.86791e-20)
(1.26055 0.222594 6.42483e-21)
(1.36575 0.250289 4.84764e-21)
(1.40111 0.255914 -2.2342e-20)
(1.39907 0.248427 -7.63475e-21)
(1.38219 0.233787 -6.80633e-21)
(1.3617 0.218212 2.99495e-21)
(0.132071 0.00196143 -7.1158e-21)
(0.46206 0.0382394 -1.64893e-22)
(0.815174 0.119667 2.06803e-20)
(1.10705 0.198699 -7.56282e-21)
(1.29198 0.251388 -3.34784e-21)
(1.37882 0.274446 -2.19635e-21)
(1.40176 0.275663 5.41559e-21)
(1.39318 0.264906 9.31527e-21)
(1.37363 0.24804 -3.01718e-22)
(1.35214 0.231445 3.38028e-21)
(0.152941 0.00731879 5.02045e-21)
(0.510586 0.0574172 -1.40991e-21)
(0.870861 0.149562 -3.71074e-21)
(1.1509 0.231149 -3.3587e-21)
(1.31655 0.280594 3.01579e-21)
(1.38665 0.298567 2.34406e-21)
(1.39903 0.295319 -2.15676e-21)
(1.38531 0.281347 7.76762e-22)
(1.36388 0.262311 1.08885e-21)
(1.34176 0.244622 -1.44222e-21)
(0.174253 0.0142166 2.71008e-21)
(0.557575 0.0797019 7.70468e-22)
(0.921508 0.181894 -4.62569e-21)
(1.18783 0.264695 -3.68336e-21)
(1.3347 0.309991 3.82907e-21)
(1.38976 0.322548 7.48702e-22)
(1.39332 0.314832 -1.7305e-21)
(1.37566 0.297703 1.62301e-21)
(1.353 0.276541 9.02312e-22)
(1.33058 0.257674 -1.03258e-21)
(0.195685 0.0226952 -1.05665e-21)
(0.60226 0.104899 2.16315e-21)
(0.966593 0.216262 1.42826e-20)
(1.21791 0.298989 -6.34573e-21)
(1.34684 0.339368 -3.08586e-21)
(1.38861 0.346283 -3.46795e-21)
(1.38494 0.334136 7.08925e-21)
(1.36438 0.313913 4.7443e-21)
(1.34104 0.290649 3.77232e-21)
(1.31859 0.27053 2.03937e-21)
(0.216895 0.0327547 2.18022e-20)
(0.643939 0.132738 -1.19978e-20)
(1.00574 0.252244 -1.36166e-20)
(1.24129 0.333691 1.84759e-20)
(1.35339 0.368523 9.69638e-21)
(1.3836 0.369663 -6.43008e-22)
(1.37414 0.353155 -1.18679e-20)
(1.35157 0.329896 -8.51427e-21)
(1.32799 0.304545 -8.8482e-21)
(1.3058 0.283109 5.25147e-21)
(0.237539 0.0443541 -2.95167e-20)
(0.681995 0.162885 2.77822e-20)
(1.03871 0.289405 3.19485e-20)
(1.25818 0.368467 -3.13909e-20)
(1.35474 0.397254 -1.08099e-20)
(1.37507 0.39257 6.91878e-21)
(1.36112 0.371799 1.24896e-20)
(1.33728 0.345562 1.96536e-21)
(1.31387 0.318122 -3.46559e-22)
(1.29214 0.295319 -7.16679e-21)
(0.257277 0.0574117 -4.25561e-21)
(0.715908 0.194955 -3.91447e-20)
(1.06538 0.3273 -4.18585e-20)
(1.26883 0.402994 4.68016e-20)
(1.35128 0.425366 -5.30946e-21)
(1.36332 0.41488 9.70944e-21)
(1.34602 0.389967 1.8961e-21)
(1.32157 0.360815 -5.32871e-21)
(1.29865 0.331286 2.86378e-21)
(1.27752 0.307075 -4.14509e-22)
(0.275784 0.0718074 8.65348e-21)
(0.74526 0.228518 2.43007e-20)
(1.08572 0.365485 1.37299e-20)
(1.27353 0.436956 -1.07934e-20)
(1.34335 0.452661 -1.67609e-20)
(1.34861 0.43646 -1.55117e-20)
(1.32898 0.40755 -3.12461e-21)
(1.30448 0.37556 8.31861e-21)
(1.28232 0.343981 -1.75633e-21)
(1.26177 0.318323 3.98074e-21)
(0.292754 0.0873855 -3.2821e-20)
(0.769735 0.263121 -3.05924e-20)
(1.09981 0.403518 -4.86011e-21)
(1.2726 0.470048 -5.4791e-21)
(1.33129 0.478942 -1.24044e-20)
(1.33116 0.45717 7.53853e-21)
(1.3101 0.424424 -1.3416e-21)
(1.28605 0.389687 -7.25082e-21)
(1.26494 0.356187 6.58828e-21)
(1.24496 0.329023 -9.58391e-21)
(0.307917 0.103959 7.73927e-21)
(0.789123 0.298295 2.5955e-20)
(1.10776 0.44097 2.25583e-20)
(1.26636 0.501974 2.44748e-20)
(1.31541 0.504016 4.30388e-22)
(1.31114 0.476865 2.13604e-20)
(1.28944 0.440455 1.45092e-21)
(1.26633 0.403057 -2.50616e-20)
(1.24651 0.367812 1.79321e-20)
(1.22745 0.338982 6.55841e-21)
(0.321034 0.121312 2.13005e-20)
(0.803305 0.333565 4.77012e-20)
(1.10977 0.47742 -6.28255e-21)
(1.25512 0.532449 -3.08997e-20)
(1.29599 0.527695 1.38794e-20)
(1.28874 0.495401 -1.44102e-20)
(1.26712 0.455496 -1.93172e-20)
(1.24546 0.415561 -1.78287e-21)
(1.22699 0.378647 -1.50082e-20)
(1.2093 0.348249 5.80763e-21)
(0.331911 0.139209 1.00876e-20)
(0.812247 0.368462 7.58557e-21)
(1.10608 0.512469 5.96843e-20)
(1.23924 0.561203 1.11815e-20)
(1.2733 0.549799 -9.79603e-21)
(1.26414 0.512627 -4.97205e-21)
(1.24337 0.469409 2.98566e-20)
(1.2234 0.427083 2.45557e-20)
(1.20641 0.388595 1.22012e-20)
(1.19043 0.356635 -1.67781e-21)
(0.340398 0.157401 2.15871e-21)
(0.815992 0.402528 -4.8879e-20)
(1.09696 0.545734 -7.03323e-20)
(1.21906 0.587979 2.26119e-21)
(1.24763 0.570145 1.38218e-20)
(1.23758 0.528367 -1.92333e-20)
(1.2182 0.482067 -4.40948e-20)
(1.20014 0.437523 -1.31375e-20)
(1.18489 0.397524 -8.14175e-22)
(1.17082 0.364064 6.51458e-21)
(0.346386 0.17563 -1.75855e-20)
(0.814657 0.435323 4.45462e-20)
(1.08277 0.576861 4.24391e-20)
(1.19491 0.612526 -3.93681e-20)
(1.21923 0.588532 5.97009e-21)
(1.2092 0.542486 4.71775e-20)
(1.19166 0.493329 -1.08932e-20)
(1.17582 0.446761 8.96537e-21)
(1.1625 0.405345 -4.53368e-21)
(1.15052 0.370447 -5.99405e-21)
(0.349813 0.193632 -3.98579e-20)
(0.808438 0.466422 -7.01447e-20)
(1.06391 0.605545 -1.3751e-20)
(1.16709 0.634601 2.26226e-20)
(1.18836 0.604785 2.25459e-20)
(1.17914 0.554815 -4.74221e-20)
(1.16391 0.503079 2.60942e-20)
(1.15053 0.454685 -1.42123e-20)
(1.13931 0.411956 1.16756e-20)
(1.1296 0.375717 2.26654e-22)
(0.350669 0.211145 3.03753e-20)
(0.797611 0.495411 1.96503e-21)
(1.04071 0.631517 -6.83647e-21)
(1.13585 0.653987 -2.85169e-20)
(1.15529 0.618713 1.90488e-20)
(1.14759 0.565211 3.64343e-21)
(1.13506 0.511187 -1.56947e-20)
(1.12436 0.461186 2.25574e-21)
(1.11539 0.417258 -3.41973e-21)
(1.10816 0.379794 2.27596e-21)
(0.349011 0.227922 -8.48774e-21)
(0.782527 0.521951 -1.21492e-20)
(1.01325 0.654375 3.03421e-20)
(1.10168 0.670571 1.40944e-20)
(1.12032 0.630144 -1.92723e-20)
(1.11474 0.573541 2.86645e-20)
(1.10524 0.517539 1.759e-21)
(1.09742 0.466165 1.78995e-21)
(1.09084 0.42115 -1.57736e-21)
(1.08628 0.382583 -4.13938e-23)
(0.344946 0.243701 5.54231e-20)
(0.763487 0.545926 4.27119e-20)
(0.981757 0.67375 -2.51288e-21)
(1.06502 0.684053 -6.96924e-21)
(1.0837 0.638998 -8.02036e-21)
(1.08077 0.579692 -3.95793e-21)
(1.07462 0.522029 1.50794e-21)
(1.06982 0.469535 2.11017e-21)
(1.06575 0.423535 2.02864e-21)
(1.06403 0.383979 -1.43714e-21)
(0.338555 0.258108 5.29205e-21)
(0.74057 0.566985 7.86466e-21)
(0.947116 0.689814 -4.09946e-20)
(1.02627 0.694187 1.86522e-20)
(1.0457 0.645135 6.52313e-21)
(1.04588 0.583559 -1.47033e-20)
(1.04332 0.524564 4.43438e-21)
(1.04167 0.471219 1.04393e-21)
(1.04025 0.424343 -2.54667e-21)
(1.04165 0.383936 2.20361e-21)
(0.329814 0.270884 -2.1e-20)
(0.713993 0.584523 -1.59005e-20)
(0.909857 0.702286 1.41393e-20)
(0.985708 0.700984 4.59913e-21)
(1.00657 0.648457 -6.8867e-21)
(1.01026 0.585045 7.20137e-21)
(1.01149 0.525051 1.40939e-21)
(1.01306 0.471121 -3.42948e-21)
(1.01458 0.423501 1.407e-20)
(1.01981 0.382496 6.40733e-21)
(0.318979 0.281828 -1.68079e-20)
(0.684362 0.598342 4.47589e-20)
(0.87026 0.710934 -2.93724e-20)
(0.94366 0.704356 -3.46362e-21)
(0.966575 0.648875 -6.30867e-21)
(0.974095 0.584069 2.4359e-21)
(0.979229 0.523406 -4.3613e-21)
(0.984122 0.469104 2.61359e-21)
(0.989174 0.420802 5.61249e-22)
(0.999261 0.37967 -2.5033e-21)
(0.306315 0.290942 -5.93029e-22)
(0.652119 0.608341 -1.31384e-20)
(0.828737 0.715559 8.56535e-21)
(0.900478 0.70422 -5.58723e-21)
(0.925976 0.64633 1.35854e-21)
(0.937572 0.580582 3.44101e-21)
(0.946669 0.519585 9.98593e-21)
(0.955045 0.465076 -8.45191e-21)
(0.964393 0.415876 -1.68221e-20)
(0.979235 0.374723 7.97916e-21)
(0.291947 0.298014 1.59091e-21)
(0.617725 0.614392 -7.94692e-22)
(0.785716 0.716064 5.84462e-22)
(0.856511 0.700511 6.72888e-22)
(0.88504 0.64078 -6.26859e-21)
(0.900888 0.574553 -1.40426e-20)
(0.914006 0.513589 -4.08801e-21)
(0.926123 0.459166 -1.92263e-21)
(0.940228 0.408972 2.42377e-20)
(0.956701 0.36406 -4.77838e-21)
(0.276101 0.302898 -6.03063e-21)
(0.581625 0.616393 -5.11911e-21)
(0.741627 0.712398 2.03834e-21)
(0.812109 0.693191 1.25614e-21)
(0.844032 0.632198 -6.93771e-21)
(0.864264 0.565953 2.86086e-20)
(0.881504 0.50538 -2.13698e-20)
(0.897578 0.451439 2.61958e-20)
(0.915555 0.401967 -1.8444e-20)
(0.931831 0.358524 -2.51002e-20)
(0.259029 0.305483 1.80899e-21)
(0.544251 0.614271 -2.75325e-21)
(0.696897 0.704546 1.22327e-21)
(0.76762 0.682251 1.04562e-20)
(0.803221 0.620575 -5.20796e-21)
(0.827928 0.554766 7.90514e-21)
(0.849371 0.494907 1.23992e-20)
(0.86942 0.441617 -6.60074e-21)
(0.890734 0.392651 -1.864e-20)
(0.90807 0.349414 2.56453e-20)
(0.24099 0.305693 7.19576e-21)
(0.506038 0.607991 9.17131e-21)
(0.651947 0.692523 -1.00433e-20)
(0.723384 0.66771 -8.86318e-21)
(0.762874 0.605926 3.60947e-20)
(0.792101 0.541004 -3.76297e-20)
(0.817757 0.482221 4.63142e-20)
(0.841662 0.429945 -1.16104e-20)
(0.865992 0.382076 1.25386e-20)
(0.88504 0.340044 2.40092e-20)
(0.22225 0.303476 -2.05826e-21)
(0.467415 0.597557 -9.8864e-21)
(0.607187 0.676373 -7.65819e-21)
(0.679736 0.649613 -3.77553e-21)
(0.723256 0.588285 5.45363e-21)
(0.757005 0.524689 -1.04381e-20)
(0.786837 0.467325 -1.3788e-20)
(0.81447 0.416345 -3.11036e-20)
(0.841694 0.369811 3.10539e-20)
(0.862872 0.329181 -9.92805e-21)
(0.203071 0.29881 2.20992e-20)
(0.428807 0.583011 -3.2177e-21)
(0.563014 0.65617 -1.08967e-20)
(0.636998 0.628028 1.3403e-20)
(0.684626 0.567706 -2.40821e-20)
(0.722852 0.505869 6.64099e-20)
(0.756777 0.450272 -3.57026e-20)
(0.788011 0.400906 3.26755e-20)
(0.818063 0.356028 -6.01018e-20)
(0.841596 0.316991 -1.60786e-20)
(0.18372 0.291704 -5.9438e-21)
(0.390625 0.56443 2.36711e-20)
(0.519814 0.632019 5.26138e-21)
(0.595487 0.603051 -1.28194e-20)
(0.647238 0.544266 -2.23489e-20)
(0.68985 0.484604 -4.74061e-22)
(0.72775 0.43111 1.19195e-20)
(0.762452 0.383659 -2.9621e-20)
(0.795261 0.340692 1.45056e-20)
(0.821252 0.303393 1.9011e-21)
(0.164456 0.28219 -4.00008e-20)
(0.35327 0.541927 -9.67452e-21)
(0.477957 0.604052 -2.83307e-21)
(0.555502 0.574798 3.36253e-20)
(0.611334 0.518061 -3.16088e-20)
(0.658199 0.460974 -8.07349e-21)
(0.699929 0.409911 -5.06415e-21)
(0.737954 0.364664 9.22869e-21)
(0.773431 0.323847 -1.19371e-20)
(0.801908 0.288425 -1.85891e-20)
(0.145533 0.270328 3.63709e-20)
(0.317124 0.515648 -2.09147e-20)
(0.437796 0.572428 8.94324e-22)
(0.517332 0.543409 -5.12919e-20)
(0.577147 0.489206 5.6019e-20)
(0.628094 0.435077 -1.78043e-20)
(0.67348 0.386756 1.06798e-20)
(0.714665 0.343988 9.36059e-21)
(0.752695 0.305536 2.71945e-20)
(0.783638 0.272134 -1.12718e-20)
(0.127196 0.256205 -1.47142e-20)
(0.282551 0.485769 4.35817e-20)
(0.399662 0.537335 2.47535e-20)
(0.481247 0.509046 4.10504e-20)
(0.544898 0.457835 -9.4724e-21)
(0.599721 0.407024 3.84148e-21)
(0.648562 0.361744 3.11412e-20)
(0.692727 0.32171 7.0187e-21)
(0.733172 0.285822 6.76246e-22)
(0.766519 0.254585 -1.35378e-20)
(0.109677 0.239929 -3.49952e-20)
(0.249894 0.452497 -2.49165e-21)
(0.363868 0.498983 -1.47109e-20)
(0.447504 0.47189 -6.65343e-20)
(0.514796 0.424099 -6.45884e-20)
(0.573254 0.376944 1.07469e-20)
(0.625327 0.334984 -2.66408e-20)
(0.672267 0.297923 1.71506e-20)
(0.714971 0.264781 9.31578e-21)
(0.750625 0.235859 1.93435e-20)
(0.0931967 0.221631 5.21155e-20)
(0.219471 0.416065 -4.2711e-20)
(0.330703 0.457604 -2.18379e-20)
(0.416338 0.432143 3.85146e-20)
(0.487035 0.388168 4.41248e-20)
(0.548858 0.34498 -1.4756e-20)
(0.603913 0.306598 -1.95187e-21)
(0.65341 0.272728 -5.32358e-20)
(0.698197 0.242503 -3.01282e-20)
(0.73603 0.216045 1.15323e-20)
(0.0779578 0.201463 -2.97523e-20)
(0.191574 0.376732 1.25121e-20)
(0.300432 0.413455 4.63772e-20)
(0.387967 0.390023 -2.10287e-20)
(0.461793 0.350225 1.73813e-21)
(0.526684 0.311289 5.93695e-20)
(0.584451 0.276721 2.68526e-21)
(0.636266 0.246241 5.11601e-20)
(0.682946 0.219087 2.13483e-20)
(0.722802 0.19524 -3.39903e-20)
(0.0641464 0.179596 4.1718e-20)
(0.166469 0.334778 4.69898e-21)
(0.273293 0.366809 3.06953e-21)
(0.362587 0.345766 4.26445e-20)
(0.439232 0.310468 -5.63665e-21)
(0.506868 0.276039 -3.73149e-20)
(0.567058 0.245498 1.83083e-20)
(0.620938 0.218587 -2.93089e-20)
(0.669307 0.194643 -1.22329e-20)
(0.711004 0.173545 1.23831e-20)
(0.0519291 0.156216 -2.59916e-20)
(0.144391 0.290505 -5.0156e-20)
(0.249501 0.317957 1.16658e-20)
(0.340373 0.29962 -2.28284e-20)
(0.419497 0.269107 -1.37463e-20)
(0.489534 0.239411 3.34554e-20)
(0.55184 0.213084 -8.09297e-21)
(0.607518 0.189898 7.44432e-21)
(0.657361 0.169288 -9.09489e-21)
(0.700693 0.15107 1.80921e-20)
(0.0414518 0.131527 9.51525e-21)
(0.125545 0.244232 3.38972e-20)
(0.229238 0.267206 -4.72304e-20)
(0.321476 0.251849 2.23066e-20)
(0.402714 0.226364 -1.0187e-20)
(0.474789 0.201594 -2.86916e-20)
(0.538888 0.179642 2.34651e-20)
(0.596088 0.160315 4.90445e-21)
(0.647179 0.143147 -7.53551e-22)
(0.691916 0.127924 -2.10359e-20)
(0.0328382 0.105742 3.14495e-21)
(0.110105 0.196294 1.10118e-20)
(0.212661 0.214875 4.28585e-20)
(0.306025 0.202725 -8.2495e-21)
(0.388988 0.18247 -6.50521e-21)
(0.462722 0.162788 2.39363e-21)
(0.52828 0.145344 1.09606e-21)
(0.586717 0.129987 8.76826e-21)
(0.638822 0.11635 -1.15352e-20)
(0.684716 0.104223 -7.33485e-21)
(0.0261892 0.0790874 -7.82384e-21)
(0.0982115 0.147038 -1.33954e-20)
(0.199895 0.161294 -3.34445e-20)
(0.294122 0.15253 1.6842e-20)
(0.378406 0.137666 1.37263e-20)
(0.453408 0.123196 5.84044e-22)
(0.52008 0.110366 -2.29643e-20)
(0.57946 0.0990676 -1.02122e-20)
(0.632341 0.0890312 8.07811e-21)
(0.679127 0.0800816 8.65697e-21)
(0.0215816 0.0517969 1.36991e-21)
(0.0899702 0.0968214 -2.82683e-21)
(0.191037 0.106803 6.34329e-21)
(0.285848 0.101555 -4.29612e-21)
(0.371034 0.0921956 -3.80797e-21)
(0.446902 0.0830299 -2.57971e-21)
(0.514337 0.0748903 4.73301e-21)
(0.574362 0.0677124 1.8037e-20)
(0.627772 0.0613267 2.6093e-21)
(0.675172 0.0556076 -4.62595e-21)
(0.0190679 0.0241102 1.69215e-21)
(0.0854539 0.0460073 -4.655e-21)
(0.186151 0.0517461 -5.27782e-21)
(0.281256 0.0500932 -3.66115e-21)
(0.366916 0.0463098 3.48549e-21)
(0.443243 0.0425044 1.57237e-21)
(0.511082 0.039102 -1.566e-21)
(0.57145 0.0360834 -7.13747e-21)
(0.625139 0.0333789 2.34977e-21)
(0.672858 0.0309263 -2.19693e-21)
(0.0186756 -0.00372929 -1.6995e-21)
(0.0847004 -0.00503528 4.67374e-21)
(0.185271 -0.0035286 5.29509e-21)
(0.280373 -0.0015568 -5.06535e-21)
(0.366075 0.000261359 4.45764e-21)
(0.44245 0.00183668 2.23077e-21)
(0.510334 0.00318906 -3.55964e-21)
(0.57074 0.0043466 -4.13737e-21)
(0.624457 0.00534566 6.10303e-22)
(0.672196 0.0062261 -1.72036e-21)
(0.020407 -0.0314769 1.86272e-21)
(0.0877124 -0.0559363 -5.56733e-21)
(0.1884 -0.0586709 1.24965e-20)
(0.283201 -0.0530962 -1.09622e-20)
(0.368513 -0.0456961 -5.14175e-22)
(0.444526 -0.0387558 -7.27152e-21)
(0.512095 -0.0326622 1.18123e-20)
(0.572239 -0.0273406 1.60539e-20)
(0.625758 -0.0226508 2.87026e-21)
(0.673295 -0.01847 -6.17566e-21)
(0.0242393 -0.0588888 -1.6096e-21)
(0.0944578 -0.106327 -1.18202e-20)
(0.195507 -0.113332 -2.74419e-20)
(0.289717 -0.104227 2.37163e-20)
(0.37421 -0.0913094 4.89084e-21)
(0.449452 -0.0790559 4.31861e-21)
(0.516348 -0.0682653 -2.12754e-20)
(0.575926 -0.0588184 -1.25275e-20)
(0.628987 -0.0504783 -2.78123e-21)
(0.675998 -0.0430863 1.90792e-20)
(0.0301248 -0.0857246 -5.67945e-21)
(0.10487 -0.155842 7.10727e-21)
(0.206534 -0.167166 4.98383e-20)
(0.299871 -0.154654 -4.46131e-21)
(0.383126 -0.136328 -1.27585e-20)
(0.457194 -0.118848 9.15505e-21)
(0.523064 -0.103433 6.10287e-22)
(0.581777 -0.0899202 3.22289e-21)
(0.63413 -0.0779731 -7.04405e-21)
(0.680329 -0.0674003 -1.86098e-20)
(0.0379913 -0.11175 -3.84817e-21)
(0.118847 -0.204125 2.08671e-20)
(0.22139 -0.219835 -5.02239e-20)
(0.313588 -0.204087 2.17627e-20)
(0.395196 -0.180506 2.03027e-22)
(0.467699 -0.157921 -2.75017e-20)
(0.532196 -0.137983 1.21263e-20)
(0.589752 -0.120488 -1.11745e-21)
(0.641157 -0.105002 4.60085e-21)
(0.686279 -0.0913208 -1.3895e-21)
(0.0477424 -0.136737 -4.40638e-20)
(0.136256 -0.250825 -5.25654e-20)
(0.239952 -0.271006 1.37295e-20)
(0.330768 -0.252242 -2.49154e-20)
(0.41034 -0.223602 -7.05648e-21)
(0.480896 -0.196069 1.04784e-20)
(0.543685 -0.171738 3.8954e-21)
(0.599796 -0.15037 1.44269e-20)
(0.65002 -0.131433 -3.10719e-21)
(0.693813 -0.114744 1.66734e-20)
(0.0592589 -0.160471 4.21525e-20)
(0.156926 -0.295608 2.70259e-20)
(0.26207 -0.320358 -2.04938e-20)
(0.351287 -0.298846 3.44018e-20)
(0.428453 -0.265385 -2.94668e-21)
(0.496697 -0.233091 -3.70416e-20)
(0.557455 -0.204526 6.4979e-21)
(0.611842 -0.179416 -3.92219e-20)
(0.660659 -0.157134 1.51903e-21)
(0.702892 -0.137554 1.42125e-20)
(0.0723994 -0.182747 -3.14495e-20)
(0.180661 -0.338152 5.62008e-20)
(0.287565 -0.367584 2.1962e-20)
(0.374997 -0.343633 -2.70939e-20)
(0.449413 -0.30563 2.14187e-22)
(0.514999 -0.268798 6.83e-20)
(0.573416 -0.236181 3.10934e-21)
(0.625813 -0.207485 3.02059e-20)
(0.673005 -0.181978 3.67288e-20)
(0.713467 -0.159636 -2.05599e-20)
(0.0870016 -0.203375 1.76394e-20)
(0.207228 -0.378154 -8.42159e-21)
(0.316228 -0.41239 -1.99661e-20)
(0.401727 -0.386354 1.50194e-20)
(0.473078 -0.344127 5.74428e-20)
(0.535681 -0.303007 -2.01293e-20)
(0.591465 -0.266548 -3.27536e-21)
(0.641617 -0.23444 -4.36457e-20)
(0.68698 -0.205848 -5.38738e-20)
(0.725483 -0.180882 2.35391e-20)
(0.102884 -0.222183 -2.35312e-20)
(0.236368 -0.41533 -2.06431e-20)