/*--------------------------------*- C++ -*----------------------------------*\
  =========                 |
  \\      /  F ield         | OpenFOAM: The Open Source CFD Toolbox
   \\    /   O peration     | Website:  https://openfoam.org
    \\  /    A nd           | Version:  7
     \\/     M anipulation  |
\*---------------------------------------------------------------------------*/
FoamFile
{
    version     2.0;
    format      ascii;
    class       volScalarField;
    location    "255";
    object      p;
}
// * * * * * * * * * * * * * * * * * * * * * * * * * * * * * * * * * * * * * //

dimensions      [0 2 -2 0 0 0 0];

internalField   nonuniform List<scalar> 
8500
(
-0.431917
-0.434059
-0.43509
-0.436755
-0.439567
-0.443695
-0.44917
-0.455986
-0.464001
-0.473231
-0.441361
-0.443025
-0.444065
-0.446017
-0.449436
-0.454542
-0.461398
-0.470047
-0.480428
-0.492469
-0.450674
-0.451798
-0.452806
-0.454994
-0.458951
-0.464945
-0.473052
-0.483345
-0.495815
-0.510194
-0.459711
-0.460243
-0.461173
-0.463528
-0.467927
-0.474691
-0.483878
-0.495579
-0.509821
-0.525956
-0.468339
-0.468236
-0.469038
-0.471474
-0.476189
-0.48359
-0.493654
-0.506489
-0.522187
-0.539399
-0.476432
-0.475675
-0.476293
-0.478711
-0.483583
-0.491491
-0.502195
-0.515872
-0.532704
-0.550524
-0.483888
-0.482484
-0.482855
-0.485157
-0.490103
-0.498173
-0.509349
-0.523596
-0.541249
-0.559068
-0.490634
-0.488611
-0.488675
-0.490745
-0.495577
-0.503652
-0.515042
-0.529563
-0.547829
-0.565011
-0.496624
-0.494032
-0.493738
-0.495456
-0.499995
-0.507882
-0.519249
-0.533741
-0.552489
-0.568446
-0.50185
-0.498761
-0.498062
-0.499313
-0.503385
-0.510878
-0.521997
-0.536159
-0.555301
-0.569532
-0.506334
-0.502838
-0.501699
-0.502378
-0.505819
-0.512715
-0.523371
-0.536911
-0.55638
-0.568294
-0.510137
-0.506336
-0.504731
-0.504747
-0.507413
-0.513523
-0.523522
-0.536174
-0.555897
-0.564956
-0.51335
-0.50935
-0.507267
-0.506551
-0.508323
-0.513489
-0.522657
-0.534217
-0.55406
-0.559909
-0.516095
-0.511996
-0.509435
-0.507944
-0.508742
-0.512849
-0.521038
-0.531385
-0.551077
-0.553743
-0.518521
-0.514407
-0.511378
-0.509098
-0.508884
-0.511873
-0.518963
-0.528107
-0.547122
-0.547079
-0.520802
-0.516731
-0.513252
-0.510197
-0.508978
-0.510845
-0.516724
-0.524793
-0.542328
-0.540384
-0.523126
-0.519123
-0.515217
-0.511426
-0.509252
-0.510046
-0.514658
-0.52178
-0.536804
-0.533733
-0.52569
-0.52174
-0.517432
-0.512966
-0.509918
-0.509714
-0.513014
-0.519243
-0.530618
-0.526794
-0.528689
-0.524737
-0.520049
-0.514979
-0.511151
-0.510025
-0.511988
-0.517152
-0.523806
-0.519569
-0.532301
-0.528252
-0.5232
-0.517597
-0.513081
-0.511075
-0.511672
-0.515315
-0.516666
-0.513518
-0.536674
-0.532405
-0.526991
-0.520916
-0.515779
-0.512877
-0.512026
-0.513499
-0.510183
-0.509517
-0.54192
-0.537284
-0.531497
-0.524986
-0.519253
-0.515378
-0.512902
-0.511629
-0.504701
-0.498997
-0.548114
-0.542948
-0.536758
-0.529815
-0.52346
-0.518472
-0.514112
-0.509746
-0.499082
-0.487899
-0.555291
-0.549427
-0.542788
-0.535383
-0.528319
-0.522026
-0.515496
-0.507733
-0.49334
-0.477539
-0.563453
-0.556728
-0.549583
-0.541648
-0.533733
-0.525901
-0.516892
-0.505505
-0.487516
-0.467661
-0.57258
-0.564846
-0.557129
-0.548563
-0.539603
-0.529958
-0.518147
-0.503009
-0.481574
-0.458423
-0.582636
-0.573768
-0.565409
-0.556074
-0.545836
-0.534056
-0.519125
-0.500199
-0.475557
-0.449613
-0.593572
-0.583471
-0.574396
-0.564121
-0.552329
-0.538044
-0.519711
-0.497047
-0.469456
-0.441162
-0.605328
-0.593925
-0.584052
-0.572634
-0.558963
-0.541768
-0.519816
-0.493531
-0.463261
-0.432942
-0.617828
-0.60508
-0.594316
-0.581519
-0.565585
-0.545076
-0.519364
-0.489625
-0.456938
-0.424855
-0.630972
-0.616861
-0.605093
-0.590646
-0.572012
-0.547821
-0.518292
-0.485298
-0.450442
-0.416795
-0.644631
-0.629159
-0.616256
-0.599843
-0.578037
-0.549867
-0.51654
-0.48051
-0.443709
-0.408663
-0.65864
-0.641826
-0.627632
-0.608889
-0.583444
-0.551083
-0.514044
-0.475209
-0.43667
-0.40036
-0.672796
-0.654669
-0.639004
-0.617521
-0.588012
-0.551346
-0.510736
-0.469334
-0.429244
-0.391794
-0.686855
-0.667455
-0.650111
-0.625446
-0.591525
-0.550535
-0.506544
-0.462813
-0.421351
-0.382873
-0.700532
-0.679908
-0.660647
-0.632358
-0.593774
-0.548533
-0.501387
-0.45557
-0.412903
-0.373512
-0.713509
-0.691716
-0.670272
-0.63795
-0.594564
-0.545225
-0.495183
-0.447523
-0.403815
-0.363631
-0.725438
-0.702537
-0.678623
-0.641923
-0.593711
-0.540502
-0.487846
-0.438588
-0.394005
-0.353157
-0.73595
-0.712006
-0.685327
-0.643996
-0.591047
-0.534255
-0.47929
-0.428685
-0.383394
-0.342029
-0.744665
-0.719743
-0.690019
-0.643912
-0.586419
-0.526387
-0.469434
-0.417736
-0.371914
-0.330201
-0.751201
-0.725368
-0.692351
-0.64144
-0.579693
-0.516802
-0.458197
-0.405668
-0.35951
-0.31764
-0.755186
-0.728507
-0.692008
-0.636382
-0.570753
-0.50542
-0.445505
-0.392411
-0.346129
-0.304316
-0.756268
-0.728804
-0.688714
-0.628574
-0.559504
-0.492169
-0.431293
-0.377899
-0.331712
-0.290169
-0.754124
-0.725936
-0.682238
-0.617889
-0.545874
-0.476995
-0.415513
-0.362083
-0.316181
-0.275038
-0.748468
-0.719622
-0.672396
-0.604237
-0.529812
-0.459862
-0.398134
-0.344942
-0.299489
-0.258663
-0.739062
-0.709636
-0.659051
-0.58756
-0.511294
-0.440746
-0.379135
-0.32648
-0.281702
-0.240958
-0.725716
-0.695807
-0.642112
-0.56784
-0.490316
-0.419637
-0.358499
-0.306692
-0.262901
-0.222516
-0.708297
-0.678019
-0.621539
-0.545086
-0.466899
-0.396548
-0.336247
-0.285599
-0.242777
-0.203609
-0.68673
-0.656217
-0.597341
-0.519346
-0.441088
-0.371521
-0.312463
-0.263259
-0.221507
-0.183952
-0.660997
-0.630405
-0.569578
-0.490711
-0.412951
-0.344639
-0.287203
-0.239633
-0.199232
-0.163473
-0.631135
-0.600647
-0.538372
-0.459307
-0.38256
-0.315991
-0.260482
-0.214799
-0.176015
-0.142203
-0.597239
-0.567073
-0.503922
-0.425225
-0.350021
-0.285632
-0.232387
-0.188844
-0.151914
-0.120223
-0.559457
-0.529886
-0.466429
-0.388416
-0.315541
-0.253696
-0.203021
-0.161861
-0.127004
-0.0976413
-0.518001
-0.489348
-0.425861
-0.349253
-0.279207
-0.220319
-0.172503
-0.133947
-0.101375
-0.0745773
-0.473112
-0.445728
-0.381983
-0.30827
-0.241265
-0.185653
-0.140966
-0.10521
-0.0751137
-0.0511201
-0.425021
-0.399062
-0.335762
-0.265404
-0.201914
-0.14987
-0.108551
-0.0757605
-0.0483097
-0.0273569
-0.374001
-0.34939
-0.287966
-0.220936
-0.161345
-0.113149
-0.0753965
-0.0456942
-0.0211079
-0.00365837
-0.320493
-0.297415
-0.238569
-0.175162
-0.119774
-0.0756632
-0.0416145
-0.0150818
0.00619881
0.0190237
-0.264948
-0.243498
-0.187753
-0.128363
-0.0774378
-0.037591
-0.0073073
0.0159794
0.0332435
0.0400056
-0.207682
-0.188117
-0.135826
-0.0808242
-0.0345822
0.000874751
0.0273564
0.047216
0.0598878
0.0613733
-0.149131
-0.131697
-0.0831498
-0.0328399
0.00854065
0.0395173
0.0621005
0.0781639
0.0861144
0.088787
-0.0897482
-0.0746529
-0.0300984
0.0152849
0.0516754
0.078102
0.0966388
0.108702
0.112988
0.116375
-0.0299916
-0.0174022
0.0229514
0.0632401
0.0945606
0.116392
0.130798
0.138945
0.140179
0.142569
0.0296808
0.0396342
0.0756257
0.110714
0.13693
0.15415
0.164404
0.168769
0.167177
0.167701
0.0888122
0.0960358
0.127556
0.157397
0.178521
0.191153
0.19729
0.197992
0.193592
0.191748
0.146951
0.151387
0.17838
0.202985
0.219074
0.227183
0.229277
0.226428
0.219223
0.214775
0.203655
0.205282
0.227747
0.24718
0.258337
0.262026
0.260185
0.253896
0.24391
0.236763
0.258496
0.257327
0.275317
0.289696
0.296067
0.295478
0.289835
0.280232
0.267529
0.257667
0.311059
0.307143
0.320765
0.330258
0.332029
0.327338
0.318057
0.305286
0.289961
0.277423
0.360952
0.354372
0.363783
0.368606
0.366003
0.357418
0.344688
0.32892
0.311098
0.295958
0.407804
0.398677
0.40408
0.404493
0.39778
0.38554
0.369576
0.351004
0.330832
0.3132
0.451271
0.439743
0.441387
0.437692
0.427164
0.411538
0.392579
0.371417
0.349064
0.329079
0.491034
0.477282
0.475459
0.467994
0.453979
0.435259
0.413569
0.390047
0.3657
0.343532
0.526806
0.511034
0.50607
0.495209
0.478062
0.456567
0.432428
0.406794
0.380656
0.356498
0.558334
0.540769
0.533025
0.51917
0.499271
0.475339
0.44905
0.421567
0.393856
0.367926
0.585395
0.566288
0.556152
0.539732
0.517481
0.491469
0.463347
0.434289
0.405235
0.377773
0.607804
0.587422
0.575308
0.556773
0.532587
0.504867
0.475241
0.444893
0.414736
0.386002
0.625413
0.604037
0.590377
0.570195
0.544508
0.515462
0.484671
0.453326
0.422314
0.392586
0.63811
0.616034
0.601273
0.579925
0.553179
0.523201
0.491592
0.459548
0.427938
0.397506
0.645822
0.623347
0.607941
0.585916
0.55856
0.528049
0.495973
0.463532
0.431585
0.400752
0.648516
0.625945
0.610354
0.588145
0.560632
0.529989
0.497801
0.465266
0.433244
0.402306
0.646196
0.623834
0.608516
0.586616
0.559398
0.529024
0.497076
0.46475
0.432911
0.402174
0.638906
0.617052
0.602462
0.581358
0.554882
0.525173
0.493816
0.462
0.430603
0.40036
0.626729
0.605676
0.592256
0.572424
0.547131
0.518477
0.488055
0.457045
0.426344
0.396891
0.609786
0.589815
0.577992
0.559896
0.536211
0.508993
0.479841
0.449926
0.420168
0.391785
0.588235
0.569611
0.559793
0.543876
0.522213
0.496796
0.469239
0.440698
0.412122
0.38507
0.56227
0.545242
0.537809
0.524493
0.505245
0.48198
0.456328
0.429431
0.402262
0.376783
0.532121
0.516914
0.512218
0.501897
0.485436
0.464654
0.4412
0.416204
0.390656
0.36697
0.498051
0.484866
0.483226
0.476263
0.462933
0.444943
0.423964
0.401109
0.377379
0.355682
0.460352
0.449365
0.451061
0.447783
0.437901
0.422989
0.404738
0.384248
0.362519
0.342979
0.419349
0.410705
0.415976
0.416672
0.410524
0.398947
0.383655
0.365735
0.34617
0.328927
0.375392
0.369206
0.378244
0.383161
0.380997
0.372983
0.360856
0.345691
0.328432
0.313597
0.328855
0.32521
0.338159
0.3475
0.349532
0.345279
0.336497
0.324248
0.309414
0.297063
0.280133
0.279078
0.296034
0.309952
0.316354
0.316025
0.310738
0.301545
0.28923
0.279401
0.22964
0.23119
0.252195
0.270792
0.281696
0.28542
0.283753
0.277731
0.267998
0.260683
0.177805
0.181941
0.206982
0.230309
0.245802
0.253671
0.255716
0.252967
0.245846
0.240969
0.125067
0.131735
0.160748
0.1888
0.208923
0.22099
0.226811
0.227427
0.222926
0.220299
0.0718707
0.0809843
0.11385
0.146566
0.171317
0.187594
0.197215
0.201292
0.199426
0.198644
0.0186665
0.0301026
0.0666551
0.103914
0.133244
0.153704
0.167097
0.174739
0.175687
0.176011
-0.0340977
-0.0204975
0.019531
0.0611522
0.0949645
0.119552
0.136633
0.147893
0.152138
0.15208
-0.0859773
-0.0704104
-0.0271525
0.0185844
0.0567353
0.0853647
0.105994
0.120691
0.129125
0.12822
-0.136527
-0.119237
-0.0730307
-0.0234925
0.0188062
0.0513702
0.0754446
0.0932609
0.105763
0.109421
-0.18533
-0.16655
-0.11776
-0.0647926
-0.0185779
0.0177773
0.0452352
0.0659954
0.0820686
0.090915
-0.232225
-0.211824
-0.161064
-0.105041
-0.0551784
-0.0152261
0.015526
0.0391303
0.0581436
0.07101
-0.276584
-0.254844
-0.202815
-0.143967
-0.0907693
-0.0474656
-0.0135735
0.0127717
0.0343236
0.0502733
-0.318068
-0.294882
-0.242931
-0.181293
-0.125144
-0.0787703
-0.0419461
-0.0129946
0.0108872
0.0295088
-0.356488
-0.332181
-0.280348
-0.216824
-0.15811
-0.108971
-0.0694562
-0.0380679
-0.0120242
0.00904891
-0.391624
-0.366497
-0.314752
-0.250403
-0.189461
-0.137906
-0.0959677
-0.0623419
-0.0343245
-0.011016
-0.423255
-0.397557
-0.346339
-0.281561
-0.219067
-0.165434
-0.121356
-0.0857146
-0.0559298
-0.0305995
-0.451219
-0.42516
-0.374991
-0.310254
-0.246721
-0.191421
-0.145513
-0.108091
-0.0767578
-0.0495908
-0.475419
-0.449173
-0.400515
-0.336399
-0.272312
-0.21578
-0.168347
-0.129383
-0.0967387
-0.0678913
-0.49581
-0.469527
-0.422776
-0.359883
-0.295762
-0.238442
-0.189801
-0.14951
-0.115805
-0.0854433
-0.512405
-0.486217
-0.441715
-0.380616
-0.316998
-0.259314
-0.20985
-0.168449
-0.133852
-0.102276
-0.525271
-0.499295
-0.457324
-0.398548
-0.335971
-0.278345
-0.2284
-0.186191
-0.150734
-0.118587
-0.534534
-0.508872
-0.469643
-0.413668
-0.352656
-0.295515
-0.245419
-0.202683
-0.166621
-0.13444
-0.540371
-0.515113
-0.478766
-0.425998
-0.367053
-0.310826
-0.26091
-0.217917
-0.181427
-0.149001
-0.543012
-0.518242
-0.484829
-0.435598
-0.379187
-0.324295
-0.274884
-0.231881
-0.195099
-0.162311
-0.542727
-0.518529
-0.488018
-0.442563
-0.389108
-0.335954
-0.287364
-0.244589
-0.207686
-0.174634
-0.539825
-0.516284
-0.488565
-0.447028
-0.396892
-0.345855
-0.298391
-0.256079
-0.21925
-0.186118
-0.534639
-0.511843
-0.486747
-0.449164
-0.402639
-0.354066
-0.308022
-0.266401
-0.229831
-0.196805
-0.527521
-0.505561
-0.482875
-0.449178
-0.406471
-0.36067
-0.316324
-0.275614
-0.239464
-0.206701
-0.518832
-0.497795
-0.477287
-0.447308
-0.408534
-0.365765
-0.323373
-0.283776
-0.248188
-0.215823
-0.508926
-0.488899
-0.470334
-0.44382
-0.408993
-0.369456
-0.329247
-0.290954
-0.256054
-0.224201
-0.498146
-0.479207
-0.462368
-0.439
-0.408033
-0.371861
-0.334032
-0.297218
-0.26312
-0.231868
-0.486813
-0.469032
-0.453723
-0.433147
-0.405856
-0.373106
-0.337816
-0.302638
-0.269444
-0.238865
-0.475218
-0.458655
-0.444708
-0.426566
-0.402677
-0.373326
-0.340689
-0.307286
-0.275085
-0.245234
-0.463615
-0.448318
-0.435593
-0.41955
-0.398724
-0.372662
-0.342741
-0.311229
-0.280102
-0.251018
-0.452222
-0.438224
-0.426607
-0.412369
-0.394229
-0.371264
-0.344062
-0.314529
-0.284547
-0.256259
-0.441212
-0.428534
-0.417934
-0.405254
-0.38942
-0.369287
-0.344742
-0.317243
-0.288463
-0.260997
-0.43072
-0.419364
-0.409716
-0.398394
-0.384512
-0.366888
-0.344869
-0.31942
-0.291884
-0.265266
-0.420838
-0.410793
-0.402051
-0.391924
-0.379692
-0.364226
-0.344534
-0.321103
-0.294833
-0.269092
-0.411618
-0.402861
-0.394998
-0.385936
-0.375102
-0.36145
-0.343826
-0.322328
-0.297315
-0.272497
-0.403082
-0.395578
-0.388576
-0.380477
-0.370837
-0.358687
-0.342834
-0.323128
-0.299318
-0.275495
-0.395218
-0.388924
-0.382771
-0.375559
-0.366943
-0.356032
-0.341642
-0.323538
-0.300816
-0.278089
-0.387995
-0.382865
-0.377542
-0.371156
-0.363424
-0.353533
-0.340321
-0.323594
-0.301768
-0.280285
-0.381369
-0.377351
-0.372832
-0.367219
-0.360252
-0.3512
-0.338918
-0.323336
-0.302132
-0.282052
-0.375294
-0.372334
-0.368576
-0.363681
-0.357378
-0.349009
-0.337448
-0.322805
-0.301864
-0.283399
-0.369735
-0.367775
-0.364723
-0.360475
-0.354745
-0.346924
-0.335907
-0.322028
-0.300991
-0.284072
-0.36467
-0.36365
-0.361225
-0.357548
-0.352303
-0.34491
-0.334289
-0.321032
-0.299516
-0.284095
-0.360109
-0.359955
-0.358074
-0.354879
-0.350027
-0.342952
-0.332621
-0.319763
-0.297736
-0.281807
-0.356079
-0.356707
-0.35529
-0.35248
-0.34793
-0.341078
-0.330959
-0.318155
-0.296891
-0.266985
-0.352629
-0.35395
-0.352913
-0.350402
-0.34607
-0.339361
-0.329388
-0.316307
-0.296762
-0.26048
-0.349822
-0.351744
-0.351009
-0.348723
-0.34454
-0.337917
-0.328033
-0.314593
-0.29681
-0.259038
-0.347728
-0.350153
-0.349657
-0.347541
-0.343463
-0.336893
-0.327069
-0.313297
-0.296727
-0.258715
-0.346411
-0.349243
-0.348934
-0.346955
-0.342968
-0.336451
-0.326704
-0.312604
-0.296816
-0.25956
-0.345924
-0.349073
-0.348914
-0.347056
-0.343171
-0.336737
-0.32703
-0.312846
-0.29763
-0.261979
-0.346304
-0.349689
-0.349652
-0.347915
-0.344165
-0.337883
-0.328343
-0.314534
-0.299255
-0.265656
-0.347569
-0.35112
-0.351187
-0.349581
-0.346012
-0.339968
-0.330737
-0.317478
-0.302099
-0.271421
-0.34972
-0.353382
-0.35354
-0.352078
-0.348741
-0.343029
-0.334266
-0.321758
-0.306565
-0.278734
-0.352745
-0.356474
-0.356713
-0.355411
-0.352355
-0.347071
-0.338932
-0.327366
-0.31279
-0.288218
-0.356621
-0.360382
-0.360696
-0.35957
-0.356841
-0.352074
-0.344695
-0.334216
-0.320568
-0.298821
-0.361316
-0.365082
-0.365468
-0.364534
-0.362178
-0.358008
-0.35151
-0.342241
-0.329774
-0.31063
-0.366794
-0.370542
-0.370999
-0.370275
-0.368336
-0.36484
-0.359333
-0.351402
-0.340376
-0.323841
-0.373013
-0.376718
-0.377249
-0.376756
-0.375279
-0.372535
-0.368128
-0.361671
-0.352364
-0.338575
-0.379926
-0.383559
-0.384166
-0.383929
-0.382961
-0.381045
-0.377846
-0.373008
-0.365695
-0.354853
-0.387477
-0.391001
-0.391688
-0.391732
-0.391322
-0.390308
-0.388419
-0.385341
-0.38028
-0.372601
-0.395597
-0.398967
-0.399738
-0.400086
-0.400279
-0.400233
-0.399746
-0.398553
-0.395966
-0.391645
-0.404206
-0.407367
-0.40822
-0.408893
-0.409726
-0.410702
-0.411685
-0.412475
-0.412519
-0.411677
-0.413207
-0.416097
-0.417026
-0.418035
-0.41953
-0.421561
-0.424055
-0.426879
-0.429631
-0.43229
-0.422486
-0.425038
-0.426028
-0.427373
-0.429536
-0.432628
-0.436633
-0.441486
-0.446929
-0.452992
-0.489944
-0.500885
-0.493392
-0.449903
-0.387535
-0.341955
-0.3373
-0.353577
-0.343445
-0.284748
-0.214506
-0.159075
-0.134883
-0.124091
-0.143283
-0.165756
-0.157605
-0.117963
-0.0992836
-0.0773556
-0.071544
-0.0609848
-0.0628345
-0.0793373
-0.082227
-0.0507889
-0.0417655
-0.0515903
-0.0432665
-0.00595644
-0.513729
-0.527884
-0.520863
-0.472183
-0.399115
-0.339859
-0.321681
-0.328942
-0.319399
-0.266729
-0.203664
-0.154807
-0.135586
-0.128328
-0.150467
-0.175328
-0.166127
-0.122343
-0.100379
-0.0772345
-0.0706515
-0.0591271
-0.0606818
-0.0781675
-0.0812969
-0.0504142
-0.0417057
-0.0514509
-0.0433945
-0.0060615
-0.535763
-0.55258
-0.545983
-0.492134
-0.408849
-0.336684
-0.305235
-0.303613
-0.293876
-0.247358
-0.191787
-0.149996
-0.135912
-0.132365
-0.15735
-0.184553
-0.174173
-0.126526
-0.101349
-0.0770878
-0.0698306
-0.0574166
-0.0586203
-0.0769801
-0.0803165
-0.0500317
-0.0416305
-0.0513321
-0.0435603
-0.00616624
-0.555448
-0.574374
-0.568266
-0.5094
-0.416554
-0.332556
-0.288377
-0.278149
-0.26696
-0.226819
-0.178908
-0.144604
-0.135787
-0.136099
-0.163829
-0.193306
-0.18169
-0.130494
-0.102198
-0.0769153
-0.0690752
-0.0558582
-0.0566637
-0.075784
-0.0792934
-0.0496434
-0.0415396
-0.0512321
-0.0437608
-0.00626999
-0.572373
-0.592833
-0.587341
-0.523793
-0.422229
-0.327608
-0.271412
-0.252959
-0.239162
-0.205341
-0.16507
-0.138599
-0.135138
-0.13943
-0.169812
-0.201479
-0.188637
-0.134233
-0.102933
-0.0767164
-0.0683775
-0.0544549
-0.0548234
-0.0745879
-0.0782353
-0.0492513
-0.0414326
-0.0511494
-0.0439928
-0.00637206
-0.585503
-0.608071
-0.602631
-0.535546
-0.4265
-0.321993
-0.254764
-0.228333
-0.211128
-0.183179
-0.150352
-0.131961
-0.133898
-0.142265
-0.175223
-0.20898
-0.194978
-0.13773
-0.103562
-0.076491
-0.0677276
-0.053208
-0.0531078
-0.0734011
-0.0771496
-0.0488567
-0.0413089
-0.0510821
-0.0442522
-0.00647173
-0.595613
-0.619804
-0.614576
-0.544703
-0.429237
-0.315901
-0.238891
-0.204759
-0.183497
-0.160624
-0.134878
-0.124683
-0.132006
-0.144519
-0.179999
-0.215738
-0.200689
-0.140974
-0.104092
-0.0762391
-0.0671144
-0.0521167
-0.0515225
-0.072233
-0.0760434
-0.0484609
-0.0411678
-0.0510284
-0.044535
-0.00656825
-0.602701
-0.628128
-0.623185
-0.551375
-0.430733
-0.310009
-0.223764
-0.18251
-0.157298
-0.138023
-0.118816
-0.116768
-0.129407
-0.146122
-0.184096
-0.221698
-0.205754
-0.143955
-0.104531
-0.0759611
-0.0665262
-0.051178
-0.0500686
-0.0710925
-0.0749231
-0.048065
-0.0410082
-0.0509865
-0.0448368
-0.00666084
-0.607067
-0.633239
-0.628532
-0.555671
-0.431204
-0.304253
-0.210083
-0.161955
-0.133162
-0.115734
-0.102367
-0.108228
-0.126051
-0.147019
-0.18748
-0.226824
-0.21016
-0.146664
-0.104887
-0.0756577
-0.0659506
-0.0503866
-0.0487429
-0.069988
-0.0737942
-0.0476696
-0.0408293
-0.0509545
-0.0451529
-0.00674868
-0.609832
-0.635333
-0.630798
-0.557711
-0.430844
-0.299042
-0.198581
-0.142815
-0.111389
-0.0942128
-0.0857317
-0.0990813
-0.121894
-0.14717
-0.190133
-0.231101
-0.213905
-0.149095
-0.105167
-0.0753299
-0.0653758
-0.0497348
-0.0475392
-0.0689267
-0.0726612
-0.0472754
-0.0406298
-0.0509303
-0.0454783
-0.00683091
-0.608846
-0.634531
-0.63018
-0.557615
-0.429795
-0.294631
-0.188895
-0.12614
-0.0919044
-0.073615
-0.0691184
-0.0893551
-0.116897
-0.146548
-0.192045
-0.234529
-0.216989
-0.151242
-0.105379
-0.0749791
-0.0647906
-0.0492125
-0.0464492
-0.0679146
-0.0715274
-0.0468827
-0.0404085
-0.0509119
-0.0458079
-0.00690661
-0.605423
-0.631029
-0.626844
-0.555538
-0.428186
-0.291177
-0.181219
-0.111913
-0.0749812
-0.0546421
-0.0527789
-0.0790819
-0.111021
-0.145137
-0.193217
-0.237115
-0.219419
-0.153098
-0.10553
-0.0746076
-0.0641853
-0.048808
-0.0454632
-0.0669567
-0.0703948
-0.0464918
-0.0401643
-0.0508971
-0.0461362
-0.00697481
-0.599547
-0.625052
-0.620991
-0.55163
-0.426142
-0.288759
-0.175598
-0.100393
-0.0604458
-0.0381319
-0.0369135
-0.0682854
-0.104231
-0.142931
-0.193657
-0.238875
-0.221201
-0.154661
-0.10563
-0.0742184
-0.0635518
-0.0485076
-0.0445707
-0.0660561
-0.069264
-0.0461029
-0.039896
-0.0508833
-0.0464577
-0.00703446
-0.592192
-0.616871
-0.612849
-0.546056
-0.423766
-0.287401
-0.172028
-0.0916056
-0.0481371
-0.0241381
-0.0216898
-0.0569822
-0.0964874
-0.139928
-0.193382
-0.239826
-0.22234
-0.155924
-0.105679
-0.0738119
-0.0628832
-0.0482921
-0.0437601
-0.0652134
-0.0681341
-0.0457158
-0.0396023
-0.0508683
-0.0467669
-0.00708441
-0.583578
-0.606734
-0.602643
-0.538979
-0.421108
-0.287019
-0.170398
-0.0854213
-0.0379511
-0.0123975
-0.00733035
-0.0451788
-0.0877493
-0.136129
-0.192411
-0.239988
-0.222847
-0.156868
-0.105663
-0.0733818
-0.0621743
-0.0481369
-0.0430181
-0.0644265
-0.0670026
-0.0453305
-0.0392821
-0.0508492
-0.0470596
-0.00712354
-0.573998
-0.59491
-0.590603
-0.530507
-0.418048
-0.287281
-0.170349
-0.081508
-0.0297756
-0.00253777
0.00591114
-0.032882
-0.0779724
-0.131532
-0.190765
-0.239396
-0.222743
-0.157481
-0.105577
-0.0729257
-0.0614242
-0.0480303
-0.0423332
-0.0636852
-0.0658654
-0.0449466
-0.0389346
-0.0508235
-0.0473306
-0.00715107
-0.563774
-0.58175
-0.577068
-0.520862
-0.414566
-0.287987
-0.171655
-0.0796776
-0.0236482
0.00569385
0.0178372
-0.0201245
-0.0671077
-0.126137
-0.188466
-0.238093
-0.222057
-0.157817
-0.105507
-0.0724876
-0.06064
-0.0480037
-0.0417156
-0.0629537
-0.0647164
-0.0445635
-0.0385589
-0.0507877
-0.0475661
-0.00716656
-0.553308
-0.567699
-0.56263
-0.510916
-0.4118
-0.290374
-0.175414
-0.0807411
-0.0201983
0.0120396
0.0281414
-0.00705426
-0.0551194
-0.119917
-0.185529
-0.235976
-0.220704
-0.158008
-0.105635
-0.0721587
-0.0598302
-0.0480968
-0.0412011
-0.0620927
-0.0635504
-0.0441802
-0.0381529
-0.0507349
-0.0477416
-0.00716842
-0.543039
-0.552853
-0.547247
-0.500925
-0.41038
-0.295138
-0.182176
-0.0850223
-0.0195177
0.016629
0.0365841
0.0058453
-0.0419488
-0.112896
-0.181959
-0.232738
-0.21843
-0.157902
-0.105776
-0.0718412
-0.0589676
-0.0481497
-0.0407218
-0.0614751
-0.0623737
-0.0437986
-0.0377117
-0.0506599
-0.0478666
-0.00715121
-0.532167
-0.537037
-0.529022
-0.485913
-0.402293
-0.292991
-0.183316
-0.0858878
-0.0170052
0.0229222
0.0449577
0.0189487
-0.0280414
-0.104969
-0.177826
-0.229675
-0.215698
-0.156479
-0.104635
-0.0708819
-0.0579645
-0.0476213
-0.0399131
-0.0610269
-0.061085
-0.0434206
-0.0372708
-0.050628
-0.0480885
-0.00710523
-0.515653
-0.520463
-0.507823
-0.462844
-0.381277
-0.276296
-0.17113
-0.0767115
-0.00805876
0.0346306
0.0597796
0.0415949
-0.00551797
-0.0948667
-0.178435
-0.232535
-0.214633
-0.153363
-0.101354
-0.0687424
-0.0566939
-0.0461193
-0.0382809
-0.0579795
-0.0586135
-0.0428249
-0.0369526
-0.0508259
-0.0487143
-0.00703198
-0.49156
-0.492436
-0.473017
-0.427673
-0.35209
-0.255521
-0.158008
-0.0688289
-0.00130036
0.0434907
0.0708288
0.0602695
0.0147355
-0.0840087
-0.174726
-0.227467
-0.207243
-0.146935
-0.0970516
-0.0661153
-0.0543401
-0.0446197
-0.0384693
-0.0571206
-0.0572999
-0.0420039
-0.0363298
-0.0501789
-0.0490601
-0.0069182
-0.46517
-0.461922
-0.437596
-0.393432
-0.324665
-0.236674
-0.146481
-0.062378
0.00367611
0.0501168
0.0808249
0.0767474
0.0310131
-0.075162
-0.169822
-0.219367
-0.197692
-0.139687
-0.0924228
-0.0632309
-0.0517851
-0.0431135
-0.0387959
-0.0557572
-0.0563798
-0.0409316
-0.0355266
-0.0491846
-0.0491614
-0.00680921
-0.437065
-0.430702
-0.403348
-0.360811
-0.298529
-0.218833
-0.135846
-0.0570088
0.007023
0.0544443
0.0890855
0.0919797
0.0461852
-0.0664455
-0.164328
-0.209324
-0.186218
-0.131395
-0.0873281
-0.0601059
-0.0489608
-0.0415525
-0.0390381
-0.0543131
-0.0552636
-0.0396811
-0.0346561
-0.0481082
-0.0489874
-0.00669674
-0.407447
-0.399571
-0.370818
-0.330179
-0.273946
-0.202175
-0.126178
-0.0526336
0.00887794
0.0564147
0.0944967
0.104469
0.0596683
-0.0572189
-0.157345
-0.196552
-0.172791
-0.122137
-0.0818101
-0.0567414
-0.0458675
-0.0398695
-0.0392158
-0.0528145
-0.0539024
-0.0383441
-0.0337564
-0.0469162
-0.0484783
-0.00657321
-0.377353
-0.369164
-0.340323
-0.301814
-0.251089
-0.18671
-0.11741
-0.0491263
0.00946532
0.0562486
0.0965464
0.112612
0.0697477
-0.0476779
-0.147725
-0.180996
-0.157685
-0.11205
-0.075905
-0.0531348
-0.0424937
-0.0380191
-0.0392707
-0.0511834
-0.0523705
-0.0369373
-0.0328047
-0.0455307
-0.047586
-0.00642997
-0.347754
-0.339885
-0.311953
-0.27576
-0.229987
-0.172398
-0.109465
-0.0463842
0.00901857
0.0542825
0.0952635
0.115407
0.0754145
-0.0379386
-0.134756
-0.16291
-0.141323
-0.101336
-0.0696671
-0.0492839
-0.0388345
-0.0359394
-0.0391053
-0.0493519
-0.0506668
-0.0354319
-0.0317767
-0.0439222
-0.0462691
-0.00625633
-0.319155
-0.311956
-0.285629
-0.25191
-0.210589
-0.159182
-0.102254
-0.0443096
0.0077313
0.0508805
0.0909979
0.112881
0.0769719
-0.0277948
-0.118251
-0.142846
-0.124255
-0.0902513
-0.0631621
-0.0451857
-0.034888
-0.0335569
-0.0386014
-0.0472293
-0.0487195
-0.0338029
-0.03067
-0.0420776
-0.0444905
-0.00603955
-0.291872
-0.285505
-0.261213
-0.230088
-0.192805
-0.146993
-0.0957002
-0.0427961
0.00575057
0.046407
0.0844366
0.10611
0.075621
-0.0170732
-0.0988317
-0.121715
-0.107119
-0.0790851
-0.056464
-0.0408368
-0.0306568
-0.0307866
-0.0376211
-0.0446992
-0.0464305
-0.0320415
-0.0294886
-0.0399795
-0.0422207
-0.00576513
-0.266102
-0.260595
-0.238559
-0.210104
-0.176521
-0.135763
-0.0897358
-0.0417311
0.00321334
0.0411819
0.076356
0.0966655
0.0725196
-0.00624844
-0.0781281
-0.100692
-0.0905457
-0.0681224
-0.0496485
-0.0362348
-0.0261477
-0.0275315
-0.0360029
-0.0416242
-0.043691
-0.03014
-0.0282285
-0.0376088
-0.039441
-0.0054172
-0.241927
-0.237245
-0.217539
-0.191773
-0.161616
-0.125422
-0.0843011
-0.0410046
0.000264712
0.0354546
0.0674239
0.0859619
0.0681897
0.00351275
-0.0582668
-0.0809233
-0.0750451
-0.0576044
-0.0427881
-0.0313823
-0.0213742
-0.0236821
-0.033563
-0.0378462
-0.0403738
-0.0280761
-0.026872
-0.0349506
-0.0361486
-0.00497939
-0.219365
-0.215451
-0.198047
-0.174936
-0.147972
-0.115905
-0.0793378
-0.0405168
-0.00294536
0.0294246
0.0581438
0.0749095
0.0626925
0.0111045
-0.0408875
-0.0632182
-0.0609357
-0.0477046
-0.0359508
-0.0262909
-0.0163611
-0.0191203
-0.0300998
-0.0331873
-0.0363185
-0.0258094
-0.0253841
-0.0319958
-0.0323613
-0.0044366
-0.198415
-0.195196
-0.179994
-0.159455
-0.135475
-0.107146
-0.0747862
-0.0401799
-0.00626441
0.0233209
0.0488862
0.0639972
0.0561614
0.0160616
-0.0267461
-0.0479612
-0.0483494
-0.0385293
-0.029202
-0.0209873
-0.0111492
-0.0137453
-0.0253975
-0.0274566
-0.0313291
-0.0232855
-0.0237073
-0.0287432
-0.0281193
-0.00377762
-0.179049
-0.176445
-0.163307
-0.145216
-0.12402
-0.0990818
-0.0705877
-0.0399166
-0.00955184
0.0172751
0.0399316
0.0535324
0.0490062
0.0186217
-0.0158124
-0.0351815
-0.0372921
-0.0301295
-0.0226089
-0.0155209
-0.00579414
-0.00750852
-0.0192663
-0.020471
-0.0251878
-0.0204429
-0.0217621
-0.0252031
-0.0234909
-0.00299918
-0.161226
-0.159158
-0.147917
-0.132123
-0.113511
-0.0916508
-0.0666871
-0.0396596
-0.0126825
0.0114501
0.0315022
0.0437546
0.041717
0.0193276
-0.0076281
-0.0247017
-0.027699
-0.022518
-0.0162435
-0.00996782
-0.000368063
-0.000429279
-0.0115976
-0.012106
-0.0177016
-0.0172189
-0.0194491
-0.0213979
-0.0185779
-0.0021116
-0.14489
-0.143284
-0.13376
-0.120093
-0.103865
-0.0847952
-0.0630339
-0.0393524
-0.0155537
0.00599429
0.0237577
0.0348324
0.0346777
0.0187232
-0.00161463
-0.0162703
-0.0194752
-0.0156841
-0.0101873
-0.00442564
0.00503211
0.00738004
-0.00241853
-0.00237815
-0.00880463
-0.0135407
-0.016669
-0.0173663
-0.0135084
-0.00114308
-0.129979
-0.128763
-0.120777
-0.109057
-0.0950083
-0.0784621
-0.0595865
-0.0389506
-0.0180866
0.00102759
0.0167928
0.0268613
0.0281303
0.0172306
0.00279614
-0.00964263
-0.0125153
-0.0096043
-0.00453184
0.000995093
0.0102837
0.0156375
0.00801767
0.00847375
0.00132476
-0.00933893
-0.013354
-0.0131572
-0.00843111
-0.000136399
-0.11642
-0.115533
-0.108909
-0.0989515
-0.0868798
-0.0726047
-0.0563122
-0.0384227
-0.02023
-0.0033677
0.0106513
0.0198757
0.0222104
0.0151041
0.00294776
-0.0046387
-0.00670433
-0.00424908
0.000634649
0.00617071
0.0152469
0.0238404
0.0191193
0.0198916
0.01214
-0.00457741
-0.00948996
-0.00874249
-0.00352223
0.000862786
-0.104156
-0.103535
-0.0981058
-0.0897247
-0.0794287
-0.0671847
-0.053188
-0.0377517
-0.0219601
-0.00714591
0.00533977
0.0138609
0.0170037
0.0129506
0.00490657
-0.000715848
-0.00190609
0.000414177
0.0052516
0.0109662
0.0197819
0.0313192
0.0299676
0.0308436
0.022648
0.000731527
-0.00513224
-0.00445807
0.00101915
0.00181109
-0.0931167
-0.0927205
-0.0883193
-0.0813295
-0.0726138
-0.0621721
-0.050201
-0.0369356
-0.0232766
-0.0102965
0.000837245
0.00876817
0.0125194
0.0108617
0.00602212
0.00229217
0.00200402
0.0044197
0.00929327
0.0152581
0.023806
0.0374014
0.0390895
0.0399334
0.0315981
0.0065243
-0.000396459
-0.000338581
0.00500008
0.0026701
-0.0832304
-0.0830192
-0.0794978
-0.0737257
-0.0664026
-0.0575469
-0.0473489
-0.0359838
-0.0241996
-0.0128405
-0.00290003
0.00452637
0.00872478
0.00890443
0.00654678
0.00454837
0.0051424
0.00780521
0.0127581
0.0189448
0.0272302
0.0416921
0.0455082
0.046136
0.0380714
0.0125777
0.00450066
0.00348265
0.00826508
0.00341022
-0.0744342
-0.0743622
-0.0715943
-0.0668795
-0.0607717
-0.0532973
-0.0446371
-0.0349202
-0.0247643
-0.0148221
-0.00593114
0.00105061
0.00556408
0.00713395
0.00667987
0.00619504
0.00761807
0.0106132
0.0156604
0.0219689
0.0299688
0.0440629
0.049025
0.0493533
0.0419141
0.0183662
0.009218
0.00686605
0.0107277
0.00402069
-0.0666802
-0.0667336
-0.0645805
-0.060767
-0.0557055
-0.0494201
-0.0420795
-0.033777
-0.0250202
-0.016302
-0.00832776
-0.00174949
0.00296922
0.00558768
0.00656452
0.00735918
0.00953229
0.0128923
0.0180239
0.0243352
0.031996
0.0448107
0.0503174
0.0503857
0.0436181
0.0232779
0.013419
0.00970279
0.01239
0.00450893
-0.0599074
-0.060061
-0.0584217
-0.0553677
-0.0511947
-0.0459215
-0.0396996
-0.0325944
-0.0250254
-0.0173523
-0.0101705
-0.00396342
0.00086133
0.00409229
0.00629509
0.00815121
0.0109776
0.0146961
0.0198849
0.0261004