/*--------------------------------*- C++ -*----------------------------------*\
  =========                 |
  \\      /  F ield         | OpenFOAM: The Open Source CFD Toolbox
   \\    /   O peration     | Website:  https://openfoam.org
    \\  /    A nd           | Version:  7
     \\/     M anipulation  |
\*---------------------------------------------------------------------------*/
FoamFile
{
    version     2.0;
    format      ascii;
    class       surfaceScalarField;
    location    "255";
    object      phi;
}
// * * * * * * * * * * * * * * * * * * * * * * * * * * * * * * * * * * * * * //

dimensions      [0 3 -1 0 0 0 0];

internalField   nonuniform List<scalar> 
16735
(
-8.28659e-05
0.00242606
-0.00234319
-0.000326943
0.00560708
-0.005363
-0.000727546
0.00762286
-0.00722226
-0.00126634
0.00868827
-0.00814947
-0.00191978
0.00909728
-0.00844384
-0.00266466
0.00911478
-0.0083699
-0.00347978
0.00888576
-0.00807064
-0.00434707
0.00840485
-0.00753756
-0.00525283
0.00753178
-0.00662602
0.00599005
-0.00504431
-0.00619857
-5.7533e-05
0.00248359
-0.000250177
0.00579972
-0.000586247
0.00795893
-0.00105302
0.00915504
-0.00162587
0.00967013
-0.00227555
0.00976446
-0.00297147
0.00958168
-0.00368359
0.00911697
-0.00438553
0.00823373
0.00666762
-0.00506311
-2.98822e-05
0.00251347
-0.000164385
0.00593423
-0.000424798
0.00821935
-0.000804126
0.00953437
-0.00127647
0.0101425
-0.00180595
0.0102939
-0.00235131
0.010127
-0.00286846
0.00963412
-0.0033163
0.00868158
0.00700465
-0.00365334
-8.67569e-07
0.00251434
-7.19051e-05
0.00600526
-0.000247112
0.00839455
-0.000525244
0.0098125
-0.000879375
0.0104966
-0.00126719
0.0106818
-0.00163649
0.0104963
-0.00192808
0.00992571
-0.00208627
0.00883977
0.00694944
-0.00203106
2.86319e-05
0.00248571
2.45051e-05
0.00600939
-5.83183e-05
0.00847738
-0.000223871
0.00997806
-0.000444844
0.0107176
-0.000673499
0.0109104
-0.000847421
0.0106703
-0.000891906
0.00997019
-0.000738275
0.00868614
0.00648388
-0.000272716
5.71926e-05
0.00242852
0.000120444
0.00594614
0.000135321
0.0084625
9.09461e-05
0.0100224
1.37838e-05
0.0107947
-4.12012e-05
0.0109654
-6.02221e-06
0.0106351
0.000202274
0.0097619
0.000691749
0.00819667
0.00558862
0.00158702
8.37535e-05
0.00234476
0.000213364
0.00581653
0.000327123
0.00834874
0.000409393
0.00994016
0.000486178
0.010718
0.00061319
0.0108384
0.000867691
0.0103806
0.00134699
0.0092826
0.00214644
0.00739722
0.00424325
0.00349181
0.000107124
0.00223764
0.000298988
0.00562466
0.00050989
0.00813784
0.000720294
0.00972976
0.000954656
0.0104836
0.00127109
0.010522
0.00175097
0.0099007
0.00250039
0.00853317
0.0036171
0.00628051
0.00245119
0.00540915
0.000126235
0.0021114
0.000373703
0.00537719
0.00067639
0.00783515
0.00101255
0.00939359
0.00140529
0.0100908
0.00191412
0.0100131
0.00262348
0.00919134
0.00364698
0.00750967
0.00508037
0.00484712
0.000204507
0.00732706
0.000140208
0.0019712
0.000434293
0.00508311
0.000819901
0.00744954
0.00127536
0.00893814
0.00182319
0.00954302
0.00252417
0.00931214
0.00346575
0.00824976
0.00476819
0.00620723
0.00652492
0.00309039
-0.00251439
0.00924382
0.000148405
0.00182279
0.000478186
0.00475333
0.000934697
0.00699303
0.00149906
0.00837377
0.00219461
0.00884747
0.00308425
0.00842251
0.00426005
0.00707395
0.00584852
0.00461877
0.00795047
0.000988437
-0.00571714
0.0111532
0.000150485
0.00167231
0.000503734
0.00440008
0.00101666
0.0064801
0.00167621
0.00771423
0.00250862
0.00801506
0.00358074
0.00735039
0.00499313
0.00566156
0.00687852
0.00273338
0.00937113
-0.00150418
-0.00947346
0.0131275
0.00014647
0.00152584
0.000510494
0.00403606
0.00106402
0.00592657
0.00180298
0.00697527
0.00275932
0.00705872
0.00400683
0.00610288
0.00566069
0.00400769
0.00786087
0.0005332
0.0108101
-0.00445342
-0.0138266
0.0151632
0.000136799
0.00138904
0.000499499
0.00367336
0.00107806
0.00534801
0.00188066
0.00617267
0.00294857
0.00599082
0.00436693
0.00468453
0.006273
0.00210162
0.00881939
-0.00201319
0.0123086
-0.00794258
-0.0187936
0.0172756
0.000122388
0.00126665
0.000473477
0.00332227
0.00106372
0.00475777
0.001917
0.00531939
0.00308848
0.00481934
0.00468061
0.0030924
0.006861
-7.87786e-05
0.00980302
-0.00495521
0.0139178
-0.0120573
-0.0243293
0.0194534
0.000104651
0.001162
0.000436938
0.00298998
0.00102992
0.00416478
0.0019269
0.00442241
0.00320262
0.00354362
0.00498401
0.00131101
0.00747456
-0.00256933
0.0108813
-0.00836197
0.015675
-0.0168511
-0.0302975
0.0216432
8.54717e-05
0.00107653
0.000396043
0.00267941
0.000989268
0.00357156
0.00193196
0.00347972
0.00332503
0.00215054
0.00532746
-0.000691417
0.00817609
-0.00541797
0.0121213
-0.0123072
0.0175704
-0.0223002
-0.0364763
0.0237493
6.70902e-05
0.00100944
0.00035817
0.00238833
0.000957063
0.00297267
0.00195846
0.00247833
0.00349602
0.000612985
0.00576611
-0.00296151
0.00902714
-0.008679
0.0135569
-0.016837
0.0195258
-0.028269
-0.042608
0.0256575
5.18816e-05
0.000957555
0.000331163
0.00210905
0.000949556
0.00235427
0.00203382
0.00139406
0.0037554
-0.00110859
0.00634788
-0.00555398
0.0100685
-0.0123996
0.0151636
-0.0219321
0.0214089
-0.0345143
-0.0484715
0.0272724
4.2053e-05
0.000915502
0.00032232
0.00182878
0.000981713
0.00169488
0.00218227
0.000193501
0.0041347
-0.00306102
0.00710029
-0.00851957
0.0113013
-0.0166006
0.0168514
-0.0274822
0.0230803
-0.0407433
-0.0539497
0.0285586
3.93196e-05
0.000876183
0.000337409
0.00153069
0.00106502
0.000967265
0.00242076
-0.00116224
0.00465068
-0.00529094
0.00802202
-0.0118909
0.0126774
-0.0212559
0.0184921
-0.0332969
0.0245458
-0.046797
-0.0602437
0.0308398
4.46903e-05
0.000831492
0.000379927
0.00119545
0.00120594
0.000141257
0.00275635
-0.00271266
0.00530193
-0.00783652
0.00908164
-0.0156706
0.014106
-0.0262803
0.0199714
-0.0391623
0.0258389
-0.0526645
-0.0657743
0.0313695
5.84246e-05
0.000773068
0.000450832
0.000803045
0.00140535
-0.000813259
0.00318565
-0.00449297
0.00606902
-0.0107199
0.0102228
-0.0198244
0.0154782
-0.0315357
0.0212175
-0.0449017
0.0266677
-0.0581147
-0.0704501
0.0313436
8.00994e-05
0.000692968
0.000548779
0.000334365
0.00165917
-0.00192365
0.00369612
-0.00652991
0.00691767
-0.0139414
0.0113739
-0.0242806
0.016699
-0.0368608
0.0221516
-0.0503543
0.0270508
-0.0630139
-0.0744596
0.0310603
0.000108797
0.000584171
0.000670745
-0.000227583
0.00195964
-0.00321255
0.00426841
-0.00883868
0.00780382
-0.0174768
0.0124607
-0.0289375
0.0176961
-0.0420961
0.0227389
-0.0553971
0.0270571
-0.0673322
-0.0778501
0.0304477
0.000143384
0.000440787
0.000812801
-0.000896999
0.00229677
-0.00469652
0.00487889
-0.0114208
0.00867924
-0.0212772
0.0134176
-0.0336759
0.0184253
-0.0471039
0.0229853
-0.0599571
0.026725
-0.0710719
-0.0806993
0.0295743
0.000182759
0.000258028
0.000970786
-0.00168503
0.00265952
-0.00638525
0.00550161
-0.0142629
0.00949695
-0.0252725
0.0141952
-0.0383741
0.0188709
-0.0517795
0.0229161
-0.0640023
0.0261149
-0.0742707
-0.0830885
0.028504
0.000225985
3.20431e-05
0.00114065
-0.00259969
0.00303633
-0.00828093
0.00610984
-0.0173364
0.0102158
-0.0293785
0.0147636
-0.0429219
0.0190387
-0.0560547
0.0225708
-0.0675344
0.0252805
-0.0769804
-0.0850889
0.027281
0.000272309
-0.000240266
0.00131852
-0.00364591
0.00341536
-0.0103778
0.00667759
-0.0205986
0.010804
-0.0335049
0.0151112
-0.0472292
0.0189499
-0.0598933
0.0219927
-0.0705773
0.0242713
-0.0792589
-0.0867666
0.0259489
0.000321118
-0.000561383
0.00150052
-0.00482531
0.0037844
-0.0126616
0.00718113
-0.0239954
0.0112405
-0.0375643
0.0152412
-0.0512298
0.0186337
-0.0632858
0.021225
-0.0731685
0.0231298
-0.0811638
-0.0881746
0.0245379
0.000371781
-0.000933165
0.0016826
-0.00613613
0.00413112
-0.0151102
0.00760066
-0.0274649
0.0115155
-0.0414792
0.0151673
-0.0548816
0.0181233
-0.0662419
0.0203069
-0.0753521
0.0218907
-0.0827476
-0.0893563
0.0230724
0.000423585
-0.00135675
0.00186036
-0.0075729
0.00444351
-0.0176933
0.00792158
-0.030943
0.0116287
-0.0451863
0.0149098
-0.0581627
0.0174517
-0.0687838
0.0192731
-0.0771734
0.0205816
-0.0840561
-0.0903445
0.0215698
0.000475669
-0.00183242
0.0020291
-0.00912633
0.00471063
-0.0203749
0.00813514
-0.0343675
0.0115872
-0.0486384
0.0144925
-0.061068
0.0166501
-0.0709414
0.0181524
-0.0786757
0.019224
-0.0851277
-0.0911636
0.0200432
0.000527018
-0.00235944
0.00218396
-0.0107833
0.00492337
-0.0231143
0.00823837
-0.0376825
0.0114035
-0.0518035
0.0139398
-0.0636043
0.0157462
-0.0727478
0.0169687
-0.0798982
0.0178343
-0.0859933
-0.0918311
0.0185017
0.000576489
-0.00293593
0.0023202
-0.012527
0.00507511
-0.0258692
0.0082333
-0.0408407
0.0110931
-0.0546633
0.0132755
-0.0657867
0.0147643
-0.0742366
0.015741
-0.0808749
0.0164246
-0.0866769
-0.0923588
0.0169524
0.000622869
-0.00355879
0.00243352
-0.0143376
0.00516199
-0.0285976
0.00812584
-0.0438045
0.0106728
-0.0572102
0.0125215
-0.0676355
0.0137246
-0.0754396
0.0144841
-0.0816345
0.0150041
-0.0871969
-0.0927547
0.0154
0.000664937
-0.00422373
0.0025203
-0.016193
0.00518298
-0.0312603
0.00792462
-0.0465461
0.0101596
-0.0594452
0.0116975
-0.0691734
0.0126438
-0.076386
0.0132097
-0.0822004
0.0135795
-0.0875667
-0.0930237
0.0138485
0.000701535
-0.00492527
0.0025779
-0.0180694
0.00513952
-0.0338219
0.00763992
-0.0490465
0.00957007
-0.0613754
0.0108203
-0.0704236
0.0115358
-0.0771015
0.0119267
-0.0825912
0.012156
-0.087796
-0.0931686
0.0123009
0.000731623
-0.00565689
0.00260468
-0.0199424
0.00503505
-0.0362523
0.00728271
-0.0512942
0.00891916
-0.0630118
0.00990468
-0.0714092
0.0104115
-0.0776082
0.010642
-0.0828218
0.0107375
-0.0878915
-0.0931909
0.0107599
0.000754324
-0.00641121
0.00260009
-0.0217882
0.00487444
-0.0385267
0.00686409
-0.0532839
0.00822051
-0.0643683
0.00896267
-0.0721513
0.00927942
-0.077925
0.00936079
-0.0829032
0.00932707
-0.0878578
-0.0930917
0.00922789
0.000768952
-0.00718017
0.00256455
-0.0235838
0.00466351
-0.0406256
0.0063947
-0.0550151
0.00748606
-0.0654596
0.00800438
-0.0726696
0.00814656
-0.0780672
0.00808713
-0.0828437
0.00792705
-0.0876977
-0.0928712
0.0077065
0.000775035
-0.0079552
0.00249935
-0.0253081
0.00440853
-0.0425348
0.00588451
-0.056491
0.00672617
-0.0663013
0.00703804
-0.0729815
0.00701819
-0.0780473
0.00682408
-0.0826496
0.00653946
-0.0874131
-0.092528
0.00619624
0.000772311
-0.00872751
0.00240641
-0.0269422
0.0041159
-0.0442443
0.00534259
-0.0577177
0.00594969
-0.0669084
0.0060704
-0.0731022
0.00589854
-0.0778755
0.00557394
-0.082325
0.00516579
-0.087005
-0.0920605
0.00469827
0.000760724
-0.00948824
0.00228813
-0.0284696
0.00379185
-0.045748
0.00477703
-0.0587029
0.00516409
-0.0672954
0.00510695
-0.0730451
0.00479115
-0.0775597
0.00433879
-0.0818726
0.00380676
-0.0864729
-0.091467
0.00321333
0.000740423
-0.0102287
0.00214721
-0.0298764
0.00344232
-0.0470431
0.00419496
-0.0594555
0.00437561
-0.0674761
0.00415215
-0.0728216
0.00369921
-0.0771067
0.00312158
-0.081295
0.00246225
-0.0858136
-0.0907437
0.00173894
0.00071177
-0.0109404
0.0019868
-0.0311514
0.00307283
-0.0481292
0.00360256
-0.0599853
0.0035894
-0.0674629
0.00320947
-0.0724417
0.00262506
-0.0765223
0.00192605
-0.080596
0.00113734
-0.0850249
-0.0898537
0.000247356
0.000675292
-0.0116157
0.00180994
-0.0322861
0.00268845
-0.0490077
0.00300516
-0.060302
0.00280972
-0.0672675
0.00228162
-0.0719136
0.00156978
-0.0758105
0.000750031
-0.0797763
-0.000140225
-0.0841346
-0.0888421
-0.00115181
0.000631642
-0.0122474
0.00161952
-0.0332739
0.00229371
-0.0496818
0.00240735
-0.0604156
0.00204003
-0.0669002
0.00137095
-0.0712445
0.000533948
-0.0749735
-0.0004067
-0.0788356
-0.00143603
-0.0831053
-0.0877379
-0.00254026
0.000581579
-0.0128289
0.00141832
-0.0341107
0.00189267
-0.0501562
0.00181294
-0.0603359
0.00128312
-0.0663704
0.000478913
-0.0704403
-0.000477457
-0.0740171
-0.00153124
-0.0777818
-0.00268623
-0.0819503
-0.0865112
-0.00391292
0.000525944
-0.0133549
0.00120901
-0.0347938
0.00148901
-0.0504362
0.00122501
-0.0600719
0.000541467
-0.0656868
-0.000391573
-0.0695073
-0.00146245
-0.0729462
-0.00263553
-0.0766087
-0.00390878
-0.0806771
-0.0851587
-0.00526132
0.000465628
-0.0138205
0.000994163
-0.0353223
0.00108595
-0.050528
0.000646313
-0.0596323
-0.00018311
-0.0648574
-0.00123832
-0.0684521
-0.00242515
-0.0717594
-0.00371382
-0.0753201
-0.00510482
-0.0792861
-0.0836816
-0.00658189
0.000401516
-0.014222
0.000776323
-0.0356971
0.000686213
-0.0504379
8.44193e-05
-0.0590305
-0.000887618
-0.0638854
-0.00206374
-0.0672759
-0.00336312
-0.07046
-0.00476486
-0.0739183
-0.00627293
-0.077778
-0.0820821
-0.00787243
0.000334489
-0.0145565
0.000557845
-0.0359204
0.000294445
-0.0501745
-0.000473924
-0.0582621
-0.00157457
-0.0627847
-0.00286605
-0.0659844
-0.00427528
-0.0690508
-0.00578785
-0.0724058
-0.00741158
-0.0761543
-0.0803625
-0.0091312
0.000265762
-0.0148223
0.000340345
-0.035995
-8.45312e-05
-0.0497496
-0.00101181
-0.0573348
-0.00224152
-0.061555
-0.00364463
-0.0645813
-0.00516101
-0.0675344
-0.00678221
-0.0707845
-0.00851957
-0.0744169
-0.0785267
-0.0103554
0.000196164
-0.0150184
0.000129818
-0.0359287
-0.0004818
-0.049138
-0.00153823
-0.0562784
-0.00288746
-0.0602058
-0.00439877
-0.06307
-0.00601976
-0.0659134
-0.00774747
-0.0690568
-0.00959581
-0.0725686
-0.0765816
-0.0115409
0.000123967
-0.0151424
-8.13903e-05
-0.0357233
-0.000854194
-0.0483652
-0.00204855
-0.055084
-0.00351201
-0.0587423
-0.00512783
-0.0614542
-0.00685099
-0.0641903
-0.00868298
-0.0672249
-0.0106391
-0.0706124
-0.074533
-0.0126878
4.6662e-05
-0.0151891
-0.000313881
-0.0353628
-0.00121763
-0.0474614
-0.00254086
-0.0537608
-0.00411453
-0.0571686
-0.0058315
-0.0597372
-0.00765442
-0.0623673
-0.00958831
-0.065291
-0.0116499
-0.0685508
-0.0723766
-0.0138063
-3.01534e-05
-0.0151589
-0.000528744
-0.0348642
-0.00156991
-0.0464202
-0.00301471
-0.052316
-0.00469419
-0.0554892
-0.00650947
-0.057922
-0.00843056
-0.0604462
-0.010465
-0.0632565
-0.0126283
-0.0663875
-0.0701087
-0.0148963
-0.000101522
-0.0150574
-0.000734544
-0.0342312
-0.00190942
-0.0452454
-0.00346982
-0.0507556
-0.0052504
-0.0537086
-0.00716117
-0.0560112
-0.00918007
-0.0584274
-0.011317
-0.0611196
-0.013571
-0.0641335
-0.0677501
-0.0159296
-0.000173774
-0.0148836
-0.000932999
-0.0334719
-0.00223539
-0.043943
-0.00390557
-0.0490854
-0.00578254
-0.0518316
-0.00778556
-0.0540082
-0.00990054
-0.0563124
-0.0121414
-0.0588787
-0.0145146
-0.0617603
-0.0654663
-0.0167984
-0.000244701
-0.0146389
-0.00112427
-0.0325924
-0.00254731
-0.0425199
-0.00432149
-0.0473112
-0.00629021
-0.0498629
-0.00838163
-0.0519167
-0.0105865
-0.0541075
-0.0129046
-0.0565606
-0.0152916
-0.0593733
-0.0626167
-0.0181412
-0.000313672
-0.0143253
-0.00130802
-0.031598
-0.00284486
-0.0409831
-0.00471727
-0.0454388
-0.00677331
-0.0478069
-0.00894886
-0.0497412
-0.0112347
-0.0518217
-0.0136247
-0.0541705
-0.0161369
-0.0568611
-0.0597917
-0.018962
-0.000380335
-0.0139449
-0.0014838
-0.0304946
-0.0031277
-0.0393392
-0.00509267
-0.0434739
-0.00723154
-0.045668
-0.00948714
-0.0474856
-0.0118525
-0.0494563
-0.0143317
-0.0516913
-0.0169613
-0.0542315
-0.0569505
-0.0198025
-0.000444418
-0.0135005
-0.00165119
-0.0292878
-0.00339557
-0.0375948
-0.00544746
-0.041422
-0.00766451
-0.0434509
-0.0099956
-0.0451545
-0.0124366
-0.0470154
-0.0149972
-0.0491307
-0.0177101
-0.0515186
-0.0540661
-0.0205945
-0.000505682
-0.0129948
-0.00180984
-0.0279836
-0.00364822
-0.0357564
-0.00578148
-0.0392887
-0.00807213
-0.0411603
-0.0104747
-0.0427519
-0.0129883
-0.0445018
-0.0156258
-0.0464931
-0.0184127
-0.0487317
-0.0511257
-0.0213531
-0.00056391
-0.0124309
-0.00195943
-0.0265881
-0.00388543
-0.0338304
-0.00609461
-0.0370795
-0.00845424
-0.0388007
-0.0109242
-0.040282
-0.0135062
-0.0419198
-0.0162147
-0.0437847
-0.0190696
-0.0458767
-0.0481227
-0.0220726
-0.00061891
-0.011812
-0.0020997
-0.0251073
-0.00410703
-0.0318231
-0.00638674
-0.0347998
-0.00881079
-0.0363766
-0.0113439
-0.0377488
-0.0139903
-0.0392734
-0.0167644
-0.0410105
-0.0196839
-0.0429573
-0.0450556
-0.022751
-0.000670511
-0.0111415
-0.00223045
-0.0235474
-0.00431288
-0.0297407
-0.0066578
-0.0324549
-0.00914169
-0.0338927
-0.0117337
-0.0351568
-0.01444
-0.0365672
-0.0172752
-0.0381752
-0.0202558
-0.0399768
-0.0419257
-0.0233856
-0.000718561
-0.0104229
-0.00235148
-0.0219145
-0.00450288
-0.0275893
-0.00690773
-0.03005
-0.00944686
-0.0313536
-0.0120935
-0.0325102
-0.0148552
-0.0338054
-0.0177471
-0.0352833
-0.020785
-0.0369389
-0.0387359
-0.0239749
-0.000762928
-0.00966
-0.00246264
-0.0202147
-0.00467691
-0.025375
-0.00713648
-0.0275905
-0.00972624
-0.0287638
-0.012423
-0.0298134
-0.0152357
-0.0309927
-0.0181798
-0.0323392
-0.0212711
-0.0338476
-0.0354898
-0.0245171
-0.000803497
-0.0088565
-0.0025638
-0.0184544
-0.00483492
-0.0231039
-0.007344
-0.0250814
-0.00997976
-0.0261281
-0.0127222
-0.027071
-0.0155814
-0.0281335
-0.0185732
-0.0293475
-0.0217134
-0.0307074
-0.0321919
-0.0250113
-0.00084017
-0.00801633
-0.00265484
-0.0166398
-0.00497682
-0.0207819
-0.00753026
-0.022528
-0.0102074
-0.023451
-0.0129909
-0.0242875
-0.015892
-0.0252324
-0.0189268
-0.0263126
-0.0221115
-0.0275227
-0.0288469
-0.0254564
-0.00087286
-0.00714347
-0.00273569
-0.0147769
-0.00510259
-0.018415
-0.00769524
-0.0199353
-0.010409
-0.0207372
-0.013229
-0.0214675
-0.0161674
-0.022294
-0.0192406
-0.0232395
-0.0224647
-0.0242986
-0.02546
-0.0258517
-0.000901494
-0.00624198
-0.00280625
-0.0128722
-0.00521216
-0.0160091
-0.00783889
-0.0173086
-0.0105845
-0.0179916
-0.0134364
-0.0186156
-0.0164074
-0.019323
-0.0195141
-0.0201328
-0.0227728
-0.0210398
-0.0220363
-0.0261965
-0.000926011
-0.00531597
-0.00286647
-0.0109317
-0.00530552
-0.0135701
-0.00796119
-0.0146529
-0.010734
-0.0152187
-0.0136131
-0.0157365
-0.0166118
-0.0163243
-0.0197471
-0.0169975
-0.0230354
-0.0177514
-0.0185812
-0.0264905
-0.00094636
-0.0043696
-0.00291629
-0.00896181
-0.00538262
-0.0111037
-0.00806212
-0.0119734
-0.0108574
-0.0124235
-0.0137589
-0.012835
-0.0167806
-0.0133026
-0.0199396
-0.0138385
-0.0232523
-0.0144387
-0.0151002
-0.0267333
-0.000962499
-0.00340711
-0.00295566
-0.00696864
-0.00544344
-0.00861594
-0.00814167
-0.00927519
-0.0109546
-0.00961059
-0.0138737
-0.00991583
-0.0169135
-0.0102628
-0.0200912
-0.0106608
-0.0234233
-0.0111067
-0.0115987
-0.0269248
-0.000974395
-0.00243271
-0.00298456
-0.00495847
-0.00548796
-0.00611254
-0.0081998
-0.00656335
-0.0110255
-0.00678485
-0.0139576
-0.00698374
-0.0170107
-0.00720981
-0.0202021
-0.00746943
-0.0235482
-0.0077605
-0.00808209
-0.0270648
-0.000982025
-0.00145069
-0.00300296
-0.00293754
-0.00551616
-0.00359934
-0.00823652
-0.00384299
-0.0110703
-0.00395108
-0.0140105
-0.00404356
-0.0170719
-0.00414841
-0.0202719
-0.00426936
-0.0236271
-0.00440535
-0.00455579
-0.0271534
-0.000985372
-0.000465313
-0.00301083
-0.000912079
-0.00552803
-0.00108215
-0.00825179
-0.00111923
-0.0110888
-0.00111408
-0.0140323
-0.00110008
-0.0170971
-0.00108357
-0.0203008
-0.00106565
-0.0236597
-0.00104643
-0.00102536
-0.0271902
-0.00098443
0.000519117
-0.00300818
0.00111167
-0.00552355
0.00143323
-0.00824561
0.00160283
-0.011081
0.00172133
-0.014023
0.00184187
-0.0170863
0.0019798
-0.0202886
0.00213662
-0.0236462
0.00231115
0.00250245
-0.027174
-0.000979199
0.00149832
-0.00299499
0.00312746
-0.00550272
0.00394096
-0.00821796
0.00431807
-0.011047
0.00455032
-0.0139826
0.00477749
-0.0170396
0.00503685
-0.0202356
0.00533261
-0.023587
0.00566251
0.00602559
-0.0271101
-0.000969687
0.002468
-0.00297127
0.00512903
-0.00546553
0.00643523
-0.00816884
0.00702138
-0.0109866
0.00736807
-0.0139111
0.00770195
-0.0169569
0.00808264
-0.0201415
0.00851723
-0.0234814
0.00900246
0.0095369
-0.0269927
-0.000955911
0.00342391
-0.00293703
0.00711015
-0.00541198
0.00891019
-0.00809823
0.00970762
-0.0108999
0.0101698
-0.0138084
0.0106105
-0.0168381
0.0111123
-0.0200063
0.0116854
-0.0233296
0.0123258
0.0130309
-0.0268236
-0.000937896
0.00436181
-0.00289229
0.00906454
-0.00534208
0.01136
-0.00800612
0.0123717
-0.0107869
0.0129506
-0.0136747
0.0134982
-0.0166833
0.0141209
-0.0198301
0.0148322
-0.0231316
0.0156273
0.0165024
-0.026603
-0.000915678
0.00527749
-0.00283708
0.0109859
-0.00525581
0.0137787
-0.0078925
0.0150083
-0.0106476
0.0157057
-0.0135099
0.0163604
-0.0164926
0.0171036
-0.0196129
0.0179525
-0.0228875
0.018902
0.0199457
-0.0263309
-0.0008893
0.00616679
-0.00277145
0.0128681
-0.00515321
0.0161605
-0.00775738
0.0176125
-0.010482
0.0184304
-0.013314
0.0191923
-0.0162659
0.0200555
-0.0193549
0.0210415
-0.0225975
0.0221445
0.0233556
-0.0260074
-0.000858819
0.00702561
-0.00269544
0.0147047
-0.00503427
0.0184993
-0.00760074
0.020179
-0.0102902
0.0211198
-0.0130871
0.0219892
-0.0160035
0.022972
-0.0190561
0.0240941
-0.0222616
0.02535
0.0267267
-0.0256326
-0.000824299
0.0078499
-0.00260913
0.0164896
-0.00489904
0.0207892
-0.0074226
0.0227025
-0.010072
0.0237692
-0.0128292
0.0247464
-0.0157053
0.0258481
-0.0187168
0.0271056
-0.0218801
0.0285133
0.0300536
-0.025207
-0.000785822
0.00863573
-0.00251258
0.0182163
-0.00474754
0.0230242
-0.00722295
0.025178
-0.00982756
0.0263738
-0.0125404
0.0274593
-0.0153716
0.0286792
-0.018337
0.0300711
-0.0214533
0.0316296
0.0333312
-0.0247309
-0.000743479
0.00937921
-0.0024059
0.0198787
-0.00457982
0.0251981
-0.00700181
0.0276
-0.00955692
0.0289289
-0.0122208
0.0301232
-0.0150023
0.0314607
-0.0179171
0.0329859
-0.0209816
0.0346941
0.0365547
-0.0242051
-0.000697381
0.0100766
-0.0022892
0.0214706
-0.00439592
0.0273048
-0.00675921
0.0299632
-0.0092601
0.0314298
-0.0118705
0.0327337
-0.0145978
0.034188
-0.0174573
0.0358454
-0.0204655
0.0377023
0.0397194
-0.0236302
-0.000647654
0.0107242
-0.00216264
0.0229855
-0.00419594
0.0293381
-0.00649516
0.0322625
-0.00893714
0.0338718
-0.0114896
0.0352861
-0.0141582
0.0368565
-0.0169578
0.038645
-0.0199054
0.0406499
0.0428213
-0.0230073
-0.000594445
0.0113187
-0.00202637
0.0244175
-0.00397998
0.0312917
-0.00620972
0.0344922
-0.00858809
0.0362502
-0.0110782
0.0377762
-0.0136835
0.0394618
-0.0164187
0.0413803
-0.0193018
0.0435329
0.0458572
-0.0223377
-0.000537923
0.0118566
-0.00188062
0.0257602
-0.00374815
0.0331592
-0.00590294
0.036647
-0.00821302
0.0385602
-0.0106364
0.0401996
-0.013174
0.0419995
-0.0158402
0.0440464
-0.0186549
0.0463476
0.048825
-0.0216227
-0.000478279
0.0123349
-0.00172562
0.0270075
-0.00350062
0.0349342
-0.00557489
0.0387213
-0.007812
0.0407974
-0.0101644
0.0425519
-0.01263
0.0444652
-0.015222
0.0466384
-0.0179645
0.0490901
0.0517248
-0.0208642
-0.000415731
0.0127506
-0.00156169
0.0281535
-0.00323759
0.0366101
-0.00522569
0.0407094
-0.0073851
0.0429568
-0.00966224
0.0448291
-0.0120518
0.0468547
-0.0145639
0.0491505
-0.0172284
0.0517546
0.0545605
-0.0200641
-0.000350518
0.0131011
-0.00138917
0.0291921
-0.00295931
0.0381803
-0.00485549
0.0426055
-0.00693247
0.0450337
-0.00913027
0.0470269
-0.0114404
0.0491649
-0.0138677
0.0515778
-0.0164457
0.0543326
0.0573429
-0.0192282
-0.000282909
0.013384
-0.00120849
0.0301177
-0.00266608
0.0396379
-0.00446446
0.0444039
-0.00645423
0.0470235
-0.00856819
0.0491408
-0.010795
0.0513917
-0.013131
0.0539138
-0.0155943
0.056796
0.0600986
-0.01835
-0.000213212
0.0135973
-0.00102014
0.0309246
-0.00235824
0.040976
-0.00405288
0.0460985
-0.00595075
0.0489214
-0.00797675
0.0511668
-0.0101183
0.0535332
-0.0123761
0.0561716
-0.0147151
0.0591349
0.0628694
-0.0174859
-0.000141838
0.0137391
-0.000824622
0.0316074
-0.00203618
0.0421875
-0.00362103
0.0476834
-0.00542234
0.0507227
-0.00735604
0.0531005
-0.00940417
0.0555813
-0.0115789
0.0583464
-0.0138913
0.0614474
0.0651488
-0.0161707
-6.96414e-05
0.0138087
-0.000622309
0.0321601
-0.00170034
0.0432656
-0.00316932
0.0491524
-0.00486916
0.0524225
-0.00670666
0.054938
-0.0086559
0.0575306
-0.0107257
0.0604162
-0.0129199
0.0636416
0.0674652
-0.0152363
-1.52808e-06
0.0138103
-0.000412747
0.0325713
-0.00135137
0.0442042
-0.0026983
0.0504993
-0.00429166
0.0540159
-0.00602957
0.0566759
-0.00787808
0.0593791
-0.0098439
0.0623821
-0.0119456
0.0657433
0.0696802
-0.0141606
7.98029e-05
0.0137305
-0.000192806
0.0328439
-0.000990286
0.0450017
-0.00220862
0.0517177
-0.00369049
0.0554978
-0.0053257
0.0583111
-0.00707254
0.0611259
-0.00893475
0.0642443
-0.0109308
0.0677393
0.0717796
-0.0130303
0.000153355
0.0135771
3.91231e-05
0.0329581
-0.000618764
0.0456596
-0.00170072
0.0527996
-0.00306632
0.0568634
-0.00459553
0.0598403
-0.00623864
0.0627691
-0.00799508
0.0660007
-0.00988063
0.0696249
0.0737644
-0.0118654
0.000222066
0.013355
0.000238895
0.0329413
-0.000235418
0.0461339
-0.00117586
0.0537401
-0.00242002
0.0581075
-0.00383941
0.0612597
-0.00537602
0.0643057
-0.00702389
0.0676486
-0.00879622
0.0713972
0.0756374
-0.0106692
0.000289649
0.0130654
0.000454923
0.032776
0.000156212
0.0464326
-0.000637078
0.0545333
-0.0017523
0.0592228
-0.00305788
0.0625653
-0.00448509
0.0657329
-0.00602175
0.0691852
-0.00767761
0.073053
0.0773942
-0.00943436
0.000356124
0.0127093
0.000671751
0.0324604
0.000542078
0.0465622
-8.06958e-05
0.0551561
-0.00106385
0.0602059
-0.00225162
0.0637531
-0.00356647
0.0670477
-0.00498942
0.0706082
-0.00652606
0.0745897
0.0790286
-0.00816052
0.000419686
0.0122896
0.000887367
0.0319927
0.000939281
0.0465103
0.000481574
0.0556138
-0.000357039
0.0610445
-0.00142143
0.0648175
-0.00262088
0.0682472
-0.00392759
0.0719149
-0.00534303
0.0760051
0.080537
-0.00685143
0.000479377
0.0118102
0.00109977
0.0313723
0.00133966
0.0462704
0.00105874
0.0558947
0.000369026
0.0617342
-0.00056871
0.0657552
-0.00164933
0.0693278
-0.00283704
0.0731026
-0.00412996
0.077298
0.0819169
-0.00550977
0.000534349
0.0112759
0.00130635
0.0306003
0.00173997
0.0458368
0.00164511
0.0559896
0.00111239
0.062267
0.000306356
0.0665612
-0.000653666
0.0702878
-0.00171895
0.0741679
-0.0028883
0.0784674
0.0831662
-0.00413768
0.000583706
0.0106922
0.00150436
0.0296797
0.00213688
0.0452043
0.00223733
0.0558892
0.00187083
0.0626335
0.00120444
0.0672276
0.000366628
0.0711256
-0.000577169
0.0751117
-0.00161789
0.0795081
0.0842863
-0.00273793
0.000626596
0.0100656
0.00169102
0.0286152
0.00252651
0.0443688
0.00283196
0.0555837
0.00264147
0.0628239
0.00212093
0.0677482
0.00141363
0.0718329
0.000592821
0.0759325
-0.000307914
0.0804088
0.0852969
-0.00131857
0.00066226
0.00940329
0.00186348
0.027414
0.00290452
0.0433278
0.00342481
0.0550634
0.00342116
0.0628276
0.0030543
0.068115
0.00248003
0.0724072
0.00178715
0.0766254
0.0010008
0.0811952
0.0862041
9.36169e-05
0.000690051
0.00871324
0.00201876
0.0260853
0.00326609
0.0420804
0.00401087
0.0543186
0.00420596
0.0626325
0.00400187
0.0683191
0.00356558
0.0728435
0.00300094
0.07719
0.00235066
0.0818455
0.0869234
0.00163136
0.000709457
0.00800379
0.00215365
0.0246411
0.00360587
0.0406282
0.0045843
0.0533402
0.00499105
0.0622258
0.00496035
0.0683498
0.00466861
0.0731352
0.00423665
0.077622
0.00372184
0.0823603
0.0875048
0.00314046
0.000720157
0.00728363
0.00226523
0.023096
0.00391807
0.0389754
0.00513836
0.0521199
0.00577059
0.0615935
0.00592562
0.0681948
0.00578613
0.0732747
0.00549023
0.0779179
0.00510819
0.0827423
0.0879503
0.00466265
0.000722034
0.00656159
0.00235087
0.0214672
0.00419653
0.0371297
0.0056653
0.0506511
0.00653752
0.0607213
0.0068924
0.0678399
0.00691431
0.0732528
0.00675823
0.078074
0.00650952
0.082991
0.0882604
0.00619947
0.000715177
0.00584642
0.00240827
0.0197741
0.00443485
0.0351032
0.00615639
0.0489296
0.00728342
0.0595943
0.00785422
0.0672691
0.00804877
0.0730583
0.0080379
0.0780848
0.00792457
0.0831044
0.0884354
0.00774961
0.000699896
0.00514652
0.00243572
0.0180383
0.00462658
0.0329123
0.00660192
0.0469542
0.00799837
0.0581978
0.00880316
0.0664643
0.00918424
0.0726772
0.00932609
0.077943
0.00935111
0.0830793
0.088475
0.00931147
0.000676722
0.0044698
0.00243225
0.0162828
0.00476559
0.030579
0.00699137
0.0447285
0.00867084
0.0565184
0.00972955
0.0654056
0.0103141
0.0720927
0.0106186
0.0776384
0.0107864
0.0829116
0.0883782
0.0108831
0.000646407
0.00382339
0.00239782
0.0145314
0.00484645
0.0281303
0.00731367
0.0422612
0.00928762
0.0545444
0.0106216
0.0640716
0.0114298
0.0712845
0.0119102
0.077158
0.0122268
0.082595
0.0881425
0.0124625
0.000609896
0.0032135
0.00233341
0.0128078
0.00486496
0.0255988
0.00755761
0.0395686
0.00983385
0.0522682
0.0114653
0.0624402
0.0125205
0.0702293
0.0131936
0.076485
0.0136681
0.0821205
0.0877642
0.0140464
0.000568299
0.0026452
0.00224112
0.011135
0.0048187
0.0230212
0.00771243
0.0366749
0.0102933
0.0496873
0.0122437
0.0604897
0.013573
0.0689
0.0144599
0.075598
0.0151045
0.0814759
0.0872378
0.0156309
0.000522842
0.00212235
0.00212405
0.00953382
0.00470758
0.0204377
0.00776871
0.0336137
0.0106487
0.0468073
0.0129376
0.0582008
0.0145703
0.0672674
0.0156972
0.0744711
0.0165286
0.0806445
0.0865552
0.0172112
0.000474819
0.00164754
0.00198625
0.00802239
0.0045342
0.0178897
0.00771937
0.0304286
0.0108827
0.043644
0.013525
0.0555585
0.0154922
0.0653002
0.0168903
0.0730731
0.0179307
0.0796041
0.0857045
0.0187813
0.000425532
0.001222
0.00183241
0.00661551
0.00430407
0.0154181
0.00756088
0.0271717
0.010979
0.0402259
0.0139818
0.0525557
0.0163143
0.0629677
0.0180196
0.0713677
0.0192974
0.0783263
0.0846689
0.0203331
0.000376238
0.000845766
0.00166761
0.00532414
0.00402543
0.0130602
0.00729443
0.0239027
0.0109237
0.0365966
0.0142825
0.0491968
0.0170081
0.0602422
0.0190606
0.0693152
0.0206114
0.0767755
0.0834244
0.0218559
0.000328085
0.00051768
0.00149696
0.00415527
0.00370867
0.0108485
0.00692678
0.0206846
0.0107078
0.0328156
0.0144023
0.0455023
0.0175412
0.0571033
0.019983
0.0668734
0.0218496
0.074909
0.0819389
0.0233351
0.000282053
0.000235627
0.00132526
0.00311206
0.00336544
0.00880833
0.0064704
0.0175797
0.0103289
0.0289571
0.0143187
0.0415125
0.0178788
0.0535432
0.0207503
0.0640019
0.022982
0.0726773
0.0801702
0.0247507
0.000238882
-3.25413e-06
0.00115666
0.00219428
0.00300758
0.00695742
0.00594272
0.0146445
0.00979349
0.0251064
0.0140149
0.037291
0.0179852
0.049573
0.02132
0.0606671
0.0239706
0.0700266
0.078065
0.0260758
0.000199013
-0.000202267
0.000994353
0.00139894
0.00264586
0.00530591
0.00536431
0.0119261
0.00911795
0.0213527
0.0134838
0.0329252
0.0178271
0.0452296
0.021645
0.0568492
0.0247684
0.0669033
0.0755586
0.0272747
0.000162526
-0.000364793
0.000840328
0.000721139
0.00228903
0.00385721
0.00475632
0.0094588
0.00832749
0.0177816
0.0127308
0.0285219
0.0173788
0.0405816
0.0216764
0.0525516
0.0253193
0.0632604
0.0725772
0.0283008
0.00012915
-0.000493943
0.000695314
0.000154975
0.00194317
0.00260935
0.00413787