/*--------------------------------*- C++ -*----------------------------------*\
  =========                 |
  \\      /  F ield         | OpenFOAM: The Open Source CFD Toolbox
   \\    /   O peration     | Website:  https://openfoam.org
    \\  /    A nd           | Version:  7
     \\/     M anipulation  |
\*---------------------------------------------------------------------------*/
FoamFile
{
    version     2.0;
    format      ascii;
    class       volVectorField;
    location    "255";
    object      U;
}
// * * * * * * * * * * * * * * * * * * * * * * * * * * * * * * * * * * * * * //

dimensions      [0 1 -1 0 0 0 0];

internalField   nonuniform List<vector> 
8500
(
(-0.00253789 0.0692282 1.14405e-21)
(-0.0105637 0.147298 -3.27253e-21)
(-0.0253164 0.184268 -3.80708e-21)
(-0.0434469 0.19314 3.7861e-21)
(-0.0634276 0.185858 -3.5018e-21)
(-0.0839026 0.171047 -1.88274e-21)
(-0.103783 0.153074 3.251e-21)
(-0.122308 0.132706 4.12181e-21)
(-0.138723 0.108479 -7.05776e-22)
(-0.152718 0.0773929 2.06597e-21)
(-0.00488192 0.0711539 -1.25929e-21)
(-0.0145044 0.152795 3.88983e-21)
(-0.0283723 0.192612 -9.33484e-21)
(-0.044523 0.203336 8.47539e-21)
(-0.0619452 0.196917 3.32602e-22)
(-0.0794861 0.182157 6.22475e-21)
(-0.0960192 0.163633 -1.1e-20)
(-0.110579 0.142317 -1.64067e-20)
(-0.122231 0.116954 -3.37147e-21)
(-0.130185 0.0848648 7.75183e-21)
(-0.0072731 0.072234 1.22716e-21)
(-0.0185381 0.156753 8.83999e-21)
(-0.0313618 0.199307 2.06507e-20)
(-0.0452007 0.212005 -1.87129e-20)
(-0.0595686 0.206598 -4.34275e-21)
(-0.0735285 0.191962 -3.925e-21)
(-0.0859216 0.172853 2.03452e-20)
(-0.0955747 0.15045 1.26604e-20)
(-0.101368 0.123753 3.07593e-21)
(-0.101727 0.0903952 -2.41666e-20)
(-0.00963084 0.0724166 4.37883e-21)
(-0.0225439 0.159015 -5.14878e-21)
(-0.0341959 0.204127 -3.91616e-20)
(-0.0454386 0.218885 3.38487e-21)
(-0.0563102 0.214632 1.07557e-20)
(-0.0661097 0.200205 -8.60016e-21)
(-0.0736694 0.18049 -1.76142e-22)
(-0.0776137 0.156866 -3.67855e-21)
(-0.0767234 0.128643 8.30627e-21)
(-0.0682064 0.0936508 2.49443e-20)
(-0.011875 0.0716812 3.11196e-21)
(-0.0263994 0.159475 -1.71627e-20)
(-0.0367935 0.206888 4.08925e-20)
(-0.0452197 0.223745 -1.88083e-20)
(-0.0522195 0.220776 -4.61509e-23)
(-0.0573577 0.206661 2.64349e-20)
(-0.0594975 0.186352 -1.21926e-20)
(-0.0570605 0.161414 1.44156e-21)
(-0.0489331 0.131475 -5.1512e-21)
(-0.0305524 0.0945332 2.2409e-21)
(-0.0139287 0.0700454 3.70795e-20)
(-0.0299873 0.158091 4.44061e-20)
(-0.0390827 0.20745 -1.12193e-20)
(-0.0445473 0.226384 2.15671e-20)
(-0.0473779 0.22482 6.96703e-21)
(-0.0474311 0.211124 -9.75202e-21)
(-0.0436667 0.190293 -3.82752e-21)
(-0.0343003 0.164044 -1.77467e-20)
(-0.0185373 0.132128 3.84989e-21)
(0.010363 0.0929908 -2.40681e-20)
(-0.0157238 0.0675663 -3.57669e-20)
(-0.0332031 0.154881 -2.32015e-20)
(-0.041007 0.20573 1.91228e-20)
(-0.0434326 0.226643 -3.31651e-20)
(-0.0418887 0.226564 4.00062e-21)
(-0.0365154 0.213417 3.98534e-20)
(-0.0264201 0.192187 -7.22309e-21)
(-0.00970104 0.164686 4.93998e-20)
(0.013929 0.130698 -5.74666e-22)
(0.054192 0.0889679 -2.13614e-20)
(-0.0172087 0.0643354 3.04502e-20)
(-0.0359586 0.149924 -5.44758e-20)
(-0.0425254 0.201716 -2.16001e-20)
(-0.041913 0.224409 2.52078e-20)
(-0.0358616 0.22583 1.01496e-21)
(-0.0248006 0.213378 -7.49611e-20)
(-0.00803124 0.191898 -4.74255e-21)
(0.0165063 0.163271 -3.89636e-20)
(0.0480566 0.127372 -5.1982e-20)
(0.100834 0.0825347 3.16855e-20)
(-0.0183517 0.0604769 -1.70849e-20)
(-0.0381903 0.14337 8.05528e-21)
(-0.0436119 0.195464 2.00076e-20)
(-0.0400323 0.219624 -1.81122e-20)
(-0.0294225 0.222492 -6.36895e-20)
(-0.0124789 0.21083 2.2183e-20)
(0.0112524 0.189281 3.27295e-21)
(0.0441273 0.159779 5.89246e-20)
(0.0835879 0.122141 8.05921e-20)
(0.150478 0.0738519 -3.73188e-20)
(-0.019145 0.0561415 2.71181e-20)
(-0.0398657 0.135432 2.44634e-20)
(-0.0442575 0.187102 -3.48835e-21)
(-0.037838 0.212297 8.98677e-20)
(-0.0226906 0.21645 3.83146e-20)
(0.000270646 0.205614 2.92051e-20)
(0.0312183 0.184162 4.26823e-20)
(0.0730276 0.154117 -1.9188e-20)
(0.120398 0.114915 -2.70222e-20)
(0.203615 0.0631566 -4.63555e-20)
(-0.019606 0.0514977 -2.38756e-21)
(-0.0409864 0.126373 -3.85205e-20)
(-0.0444698 0.176833 -2.77173e-20)
(-0.0353713 0.202503 -4.4467e-20)
(-0.0157592 0.207657 -3.56491e-20)
(0.0133123 0.197592 3.6179e-20)
(0.0517252 0.176338 -3.56079e-20)
(0.103173 0.146136 -2.54269e-20)
(0.158599 0.105476 3.36405e-21)
(0.260905 0.0506938 1.20265e-20)
(-0.0197774 0.0467221 -7.47766e-20)
(-0.0415869 0.116497 3.53959e-20)
(-0.0442652 0.164926 2.57113e-20)
(-0.0326493 0.190403 1.71439e-20)
(-0.00866223 0.196143 -3.15214e-20)
(0.0266055 0.186679 -2.72338e-20)
(0.0727865 0.16562 4.00477e-20)
(0.134709 0.135663 -3.33994e-20)
(0.198784 0.0934694 -1.51705e-21)
(0.324335 0.0369222 -3.74475e-20)
(-0.019724 0.0419888 6.25897e-20)
(-0.0417291 0.106126 2.5165e-20)
(-0.0436566 0.151709 1.47098e-21)
(-0.0296373 0.176244 -3.13154e-20)
(-0.00132423 0.182036 2.31362e-21)
(0.0402852 0.172886 3.53878e-20)
(0.0946983 0.1519 -1.03379e-20)
(0.168086 0.122566 -1.29524e-20)
(0.2422 0.0784985 -3.09585e-20)
(0.395128 0.0219268 5.69653e-20)
(-0.0195269 0.0374583 4.21588e-20)
(-0.0414895 0.0955863 -6.79927e-20)
(-0.0426321 0.137553 -5.21681e-20)
(-0.0262127 0.160361 2.25152e-20)
(0.00650494 0.165591 4.61378e-20)
(0.054769 0.15637 3.94693e-20)
(0.118202 0.135251 -4.29906e-20)
(0.20423 0.10686 8.59419e-20)
(0.291133 0.0605161 -2.62556e-20)
(0.474589 0.00633614 -6.70679e-20)
(-0.0192742 0.0332659 -6.34371e-20)
(-0.0409406 0.0851793 3.79759e-20)
(-0.0411284 0.122856 -1.798e-20)
(-0.022122 0.14317 1.88273e-21)
(0.0153206 0.147197 1.91618e-20)
(0.0708698 0.137479 -6.2306e-20)
(0.144642 0.116024 5.68132e-20)
(0.244742 0.0887358 -5.59946e-20)
(0.348879 0.0401816 9.45101e-20)
(0.563063 -0.00888907 3.54394e-20)
(-0.0190482 0.0295117 1.33071e-20)
(-0.0401268 0.0751654 7.3338e-20)
(-0.0390005 0.10801 -1.83123e-20)
(-0.0169411 0.125152 1.85543e-20)
(0.0259195 0.127383 2.15111e-20)
(0.0898655 0.116777 -6.38031e-21)
(0.175961 0.0949288 4.78637e-20)
(0.29192 0.0686235 1.90488e-21)
(0.419052 0.0190902 -6.12363e-20)
(0.65897 -0.0225472 8.35066e-20)
(-0.0189119 0.0262516 -3.57579e-20)
(-0.0390398 0.065742 -6.93863e-20)
(-0.0359956 0.0933818 5.99882e-20)
(-0.0100512 0.106822 2.9927e-20)
(0.0394155 0.106788 -1.39487e-19)
(0.113493 0.0950363 1.14362e-19)
(0.214545 0.0730115 -1.05421e-19)
(0.348471 0.0473336 1.16883e-21)
(0.504036 -0.000379018 -2.55245e-20)
(0.758286 -0.0334313 -7.77535e-20)
(-0.0188946 0.0234923 3.07276e-20)
(-0.0375975 0.0570297 -4.08168e-21)
(-0.031739 0.0792835 -1.47449e-20)
(-0.000644712 0.0886898 -1.77025e-21)
(0.0571864 0.0861219 -8.50149e-21)
(0.143784 0.0731774 -3.66486e-20)
(0.262818 0.0515419 1.62274e-20)
(0.416906 0.0261654 -2.5381e-20)
(0.60321 -0.0155995 7.57241e-21)
(0.855172 -0.0407483 1.92108e-21)
(-0.0189813 0.0211908 -6.26819e-20)
(-0.0356313 0.0490648 -4.39819e-21)
(-0.0257403 0.0659489 6.75441e-21)
(0.0122281 0.0712247 2.72903e-21)
(0.0807425 0.0660991 4.55352e-20)
(0.182775 0.0521942 -1.33273e-19)
(0.32268 0.031821 9.13508e-20)
(0.498599 0.00696286 -6.90996e-20)
(0.712093 -0.0244502 6.0861e-20)
(0.943988 -0.0450718 6.94169e-20)
(-0.0191068 0.0192595 -7.50393e-21)
(-0.0328867 0.0418015 3.47473e-20)
(-0.0174205 0.05352 -4.33594e-20)
(0.0295756 0.0548135 -1.35368e-20)
(0.111537 0.0473803 2.61189e-20)
(0.23213 0.033055 1.26627e-19)
(0.394989 0.0149629 -2.5865e-20)
(0.592809 -0.00807686 1.27471e-20)
(0.823363 -0.0264382 -6.94238e-20)
(1.02216 -0.0495056 3.07078e-20)
(-0.0191583 0.017579 -2.27037e-20)
(-0.0290365 0.0351244 -1.75954e-20)
(-0.00615668 0.042046 4.35431e-21)
(0.0523611 0.0397419 1.70839e-20)
(0.150763 0.0305271 -5.05478e-20)
(0.292775 0.0166248 -2.05259e-20)
(0.479195 0.00182588 -6.52873e-20)
(0.696105 -0.0170989 6.86081e-20)
(0.929399 -0.0240354 7.3628e-20)
(1.09149 -0.0575132 -3.29014e-20)
(-0.0189845 0.0160139 -1.07724e-20)
(-0.0237037 0.0288719 4.41329e-20)
(0.00866875 0.0314988 -4.91773e-20)
(0.0814049 0.0261961 -5.74696e-21)
(0.199182 0.0159874 -2.32269e-20)
(0.36465 0.00361249 5.08787e-20)
(0.573232 -0.00693597 6.62838e-20)
(0.802818 -0.019741 -6.39689e-20)
(1.02469 -0.0213057 6.81567e-20)
(1.17874 -0.0518976 8.8156e-21)
(-0.0184087 0.0144317 -3.12981e-20)
(-0.0164884 0.0228677 -8.90785e-20)
(0.0276238 0.0218059 8.69005e-20)
(0.117314 0.0142921 1.24864e-20)
(0.257027 0.00411398 1.8278e-20)
(0.446637 -0.00545921 1.11331e-20)
(0.673659 -0.0109177 5.04871e-20)
(0.906874 -0.0172885 3.74173e-20)
(1.11189 -0.0154641 -1.3356e-19)
(1.24883 -0.0393164 -6.51413e-20)
(-0.0172432 0.0127202 -1.07263e-19)
(-0.00699237 0.0169564 2.1599e-20)
(0.0511969 0.0128957 -4.91482e-20)
(0.160444 0.00412564 9.57409e-21)
(0.323957 -0.00479479 1.53127e-20)
(0.536646 -0.0102721 -1.10914e-19)
(0.776194 -0.010153 4.9066e-20)
(1.00418 -0.0107207 -3.35467e-20)
(1.18739 -0.00626403 3.53293e-20)
(1.30052 -0.0252468 -1.20877e-20)
(-0.0153018 0.0108016 3.87968e-20)
(0.00516219 0.0110373 4.18848e-20)
(0.0797812 0.00474525 -2.41077e-21)
(0.210889 -0.00417123 -1.34588e-20)
(0.399063 -0.0104615 5.0057e-22)
(0.631845 -0.0107303 1.11419e-21)
(0.876615 -0.00504178 -7.47586e-20)
(1.09177 -0.00082388 9.42958e-21)
(1.24999 0.00518431 9.29989e-20)
(1.34104 -0.0101046 4.20778e-20)
(-0.0124087 0.00864118 -2.62754e-20)
(0.0203194 0.00508925 -1.9482e-20)
(0.113664 -0.00258028 8.37934e-20)
(0.26847 -0.0103872 2.16219e-21)
(0.480903 -0.0126307 -3.52486e-20)
(0.729013 -0.00695437 9.48692e-20)
(0.971393 0.00382716 2.08092e-20)
(1.16799 0.0116107 1.03707e-21)
(1.3005 0.0182752 -4.07912e-20)
(1.36959 0.00541976 -5.26465e-20)
(-0.0084043 0.00624939 5.49425e-20)
(0.0387792 -0.000816306 -1.53274e-20)
(0.153015 -0.00890393 -9.16944e-21)
(0.33272 -0.0142202 -3.48566e-20)
(0.567573 -0.0111076 5.73687e-20)
(0.824957 0.00075856 -2.81339e-20)
(1.05799 0.0158062 -3.17074e-20)
(1.23243 0.0259326 -7.6235e-21)
(1.33977 0.0324145 -2.31694e-20)
(1.38967 0.0209754 2.52452e-20)
(-0.00314667 0.0036779 -2.02364e-20)
(0.060787 -0.00651504 -1.20425e-19)
(0.197864 -0.0139348 1.25641e-20)
(0.402858 -0.0153049 4.34911e-20)
(0.656853 -0.00580727 3.11535e-20)
(0.916874 0.0119951 -1.03878e-19)
(1.13492 0.030277 6.64757e-20)
(1.28544 0.0415979 -3.02541e-20)
(1.3694 0.0472055 4.55189e-20)
(1.40259 0.0365019 1.24726e-20)
(0.0034889 0.0010127 -2.2177e-20)
(0.086521 -0.0117592 4.27444e-20)
(0.248071 -0.0172869 5.58837e-20)
(0.477779 -0.0132728 -4.01881e-20)
(0.746405 0.0032184 1.49613e-20)
(1.00258 0.0262882 -9.14326e-20)
(1.20157 0.0466876 -1.72567e-20)
(1.32794 0.0581871 1.42817e-20)
(1.39087 0.0623839 -3.45928e-20)
(1.41022 0.051902 -3.49845e-20)
(0.0116072 -0.00163144 -2.86402e-20)
(0.116077 -0.016233 -9.69799e-21)
(0.303296 -0.0185155 -1.01301e-19)
(0.556085 -0.00781989 -1.59135e-20)
(0.833996 0.0157894 -1.74537e-21)
(1.08058 0.0431648 5.42835e-21)
(1.25799 0.0645716 9.5507e-21)
(1.3611 0.0753885 -4.47434e-20)
(1.40569 0.0777837 8.0532e-22)
(1.41377 0.0672089 2.41157e-20)
(0.0212895 -0.00411865 -7.46362e-21)
(0.149449 -0.0195746 3.50885e-20)
(0.362977 -0.0171642 4.95022e-20)
(0.636173 0.00124075 3.10169e-20)
(0.917689 0.0316298 -9.22633e-21)
(1.15003 0.0621775 -7.58318e-21)
(1.30469 0.0835493 7.52465e-20)
(1.38618 0.0929837 9.94772e-21)
(1.41514 0.0933189 3.36494e-20)
(1.41429 0.0824375 -1.45099e-20)
(0.0325912 -0.00629768 7.12854e-20)
(0.186518 -0.0213961 4.63437e-20)
(0.426328 -0.0128148 -4.70347e-20)
(0.716351 0.0139591 -9.38565e-21)
(0.995948 0.0504067 4.86536e-21)
(1.21062 0.0829225 -1.77879e-20)
(1.34246 0.103323 -3.85264e-20)
(1.40439 0.110828 -6.44236e-21)
(1.42033 0.108949 5.21844e-22)
(1.41252 0.0976312 1.56839e-20)
(0.0455348 -0.00800568 8.70611e-21)
(0.227035 -0.0213055 -2.52601e-20)
(0.492363 -0.00512925 5.98613e-20)
(0.794982 0.0302569 3.90662e-20)
(1.06768 0.0717628 1.12369e-21)
(1.26243 0.105047 2.76693e-20)
(1.37222 0.123667 4.09877e-21)
(1.41687 0.128831 -2.9079e-20)
(1.42215 0.124663 2.46169e-20)
(1.409 0.112818 -3.56157e-23)
(0.0601039 -0.00907248 -5.86014e-20)
(0.270623 -0.0189272 -1.73202e-20)
(0.559952 0.00612182 -1.5719e-20)
(0.870588 0.0499525 -2.73701e-20)
(1.13219 0.0953393 6.36631e-21)
(1.30582 0.12825 1.47706e-22)
(1.3949 0.144413 2.11834e-20)
(1.42458 0.14694 -3.36365e-21)
(1.42129 0.140462 -2.53132e-20)
(1.40412 0.128021 -2.3613e-20)
(0.0762384 -0.00932516 4.74263e-21)
(0.316773 -0.0139239 2.79814e-20)
(0.627887 0.0210472 1.35622e-20)
(0.941928 0.0727902 -4.24814e-20)
(1.18914 0.12079 -2.16386e-21)
(1.34133 0.152279 -1.82128e-20)
(1.41139 0.165437 4.74185e-22)
(1.42834 0.165125 8.58202e-21)
(1.41827 0.156351 -9.53942e-21)
(1.3981 0.143245 2.66704e-20)
(0.0938314 -0.00859334 1.10939e-20)
(0.364865 -0.00601495 -2.73303e-20)
(0.694953 0.0396377 -6.46813e-20)
(1.00803 0.0984651 5.96275e-20)
(1.23845 0.147788 -4.45488e-21)
(1.36957 0.17692 1.31845e-20)
(1.42253 0.186647 -1.82436e-21)
(1.42881 0.183367 1.26809e-20)
(1.41347 0.172326 -9.38364e-22)
(1.39111 0.158484 -2.06732e-20)
(0.112728 -0.00671519 -2.25685e-20)
(0.414184 0.00500754 3.54903e-20)
(0.759995 0.0617782 2.9418e-20)
(1.06818 0.126642 -4.24202e-20)
(1.28024 0.176029 -7.00933e-21)
(1.39119 0.201996 2.68422e-21)
(1.42902 0.20797 2.69349e-20)
(1.42651 0.201645 1.3755e-21)
(1.40716 0.188376 5.28943e-21)
(1.38323 0.173713 -1.14048e-20)
(0.132728 -0.00354416 1.71216e-20)
(0.463953 0.0192673 -1.54672e-20)
(0.82197 0.0872636 -1.31661e-20)
(1.12189 0.156971 2.26181e-20)
(1.31477 0.20523 7.82356e-21)
(1.4068 0.227349 5.9117e-21)
(1.43147 0.229342 -2.74197e-20)
(1.42185 0.219936 -9.44704e-21)
(1.39952 0.204474 -8.49628e-21)
(1.37451 0.188899 3.74718e-21)
(0.153586 0.00104419 -8.49405e-21)
(0.51336 0.0367983 -2.00642e-22)
(0.879975 0.115817 2.4908e-20)
(1.16889 0.189093 -9.15227e-21)
(1.34238 0.235128 -4.03005e-21)
(1.41701 0.252844 -2.6588e-21)
(1.43039 0.250703 6.63701e-21)
(1.41512 0.238206 1.15173e-20)
(1.39065 0.220582 -3.67551e-22)
(1.36495 0.203992 4.25227e-21)
(0.175023 0.00714581 5.98231e-21)
(0.561596 0.0575436 -1.68085e-21)
(0.933264 0.147103 -4.45146e-21)
(1.20907 0.222648 -4.03298e-21)
(1.36346 0.265478 3.63759e-21)
(1.42233 0.278349 2.84506e-21)
(1.4262 0.271988 -2.62805e-21)
(1.40654 0.256409 9.62789e-22)
(1.38063 0.236644 1.35868e-21)
(1.35457 0.218935 -1.81712e-21)
(0.19673 0.0148228 3.18769e-21)
(0.60788 0.0813597 9.12251e-22)
(0.98125 0.180748 -5.48934e-21)
(1.24241 0.257277 -4.38384e-21)
(1.37841 0.296044 4.5783e-21)
(1.42322 0.303742 8.96966e-22)
(1.41923 0.293123 -2.11822e-21)
(1.39627 0.274485 1.99803e-21)
(1.3695 0.25259 1.12682e-21)
(1.34337 0.23366 -1.31042e-21)
(0.218378 0.0240995 -1.25162e-21)
(0.651487 0.108023 2.55784e-21)
(1.02349 0.216343 1.6873e-20)
(1.26904 0.292628 -7.50365e-21)
(1.38762 0.326602 -3.69892e-21)
(1.42011 0.328896 -4.19148e-21)
(1.40973 0.314027 8.62946e-21)
(1.38442 0.292358 5.84827e-21)
(1.35728 0.268336 4.71624e-21)
(1.33135 0.248096 2.5969e-21)
(0.239628 0.0349603 2.54624e-20)
(0.691765 0.137241 -1.4073e-20)
(1.0597 0.253462 -1.60786e-20)
(1.28911 0.328354 2.18422e-20)
(1.39149 0.356936 1.15345e-20)
(1.41333 0.353684 -7.81088e-22)
(1.39791 0.334606 -1.44634e-20)
(1.37104 0.309938 -1.04891e-20)
(1.34396 0.283781 -1.11248e-20)
(1.31849 0.262167 6.71312e-21)
(0.26014 0.047349 -3.44194e-20)
(0.728153 0.168661 3.24873e-20)
(1.08968 0.291666 3.73925e-20)
(1.30286 0.364116 -3.69471e-20)
(1.39038 0.386833 -1.28479e-20)
(1.4032 0.377976 8.32751e-21)
(1.38393 0.354761 1.5254e-20)
(1.3562 0.327129 2.45138e-21)
(1.32952 0.29882 -4.83326e-22)
(1.30469 0.275792 -9.27452e-21)
(0.279583 0.0611703 -4.90435e-21)
(0.760182 0.201882 -4.56118e-20)
(1.11336 0.330508 -4.89219e-20)
(1.31054 0.399584 5.50293e-20)
(1.38466 0.416083 -6.27089e-21)
(1.38997 0.401633 1.1707e-20)
(1.36793 0.374381 2.3653e-21)
(1.33994 0.343836 -6.61e-21)
(1.31394 0.31337 3.56165e-21)
(1.2898 0.28889 -5.90945e-22)
(0.297643 0.076292 1.00069e-20)
(0.787486 0.236468 2.8219e-20)
(1.13075 0.369542 1.60349e-20)
(1.31244 0.434439 -1.26119e-20)
(1.37463 0.444479 -1.97745e-20)
(1.37388 0.424512 -1.86296e-20)
(1.35002 0.393346 -3.82977e-21)
(1.3223 0.359963 1.04589e-20)
(1.29726 0.327416 -2.22009e-21)
(1.27368 0.301381 5.15224e-21)
(0.314031 0.0925479 -3.77656e-20)
(0.809803 0.271961 -3.54051e-20)
(1.14195 0.408326 -5.63178e-21)
(1.30887 0.468368 -6.3644e-21)
(1.36061 0.471819 -1.46859e-20)
(1.35511 0.446462 9.12163e-21)
(1.33028 0.411523 -1.61918e-21)
(1.30331 0.375381 -9.20219e-21)
(1.27953 0.340961 8.394e-21)
(1.25663 0.313215 -1.27677e-20)
(0.328491 0.109741 8.98043e-21)
(0.826964 0.307892 3.00171e-20)
(1.1471 0.446431 2.62147e-20)
(1.30013 0.501073 2.86521e-20)
(1.3429 0.4979 4.57202e-22)
(1.33386 0.467333 2.59e-20)
(1.30881 0.428772 1.91487e-21)
(1.28304 0.389933 -3.19431e-20)
(1.26066 0.353791 2.34032e-20)
(1.23895 0.324337 8.72782e-21)
(0.340806 0.127651 2.44373e-20)
(0.838885 0.343792 5.48827e-20)
(1.1464 0.483442 -7.27333e-21)
(1.28654 0.532264 -3.61631e-20)
(1.32176 0.522526 1.64441e-20)
(1.3103 0.486972 -1.74276e-20)
(1.28572 0.444962 -2.4139e-20)
(1.26154 0.403566 -2.58208e-21)
(1.24063 0.365722 -2.00183e-20)
(1.22057 0.334641 8.02164e-21)
(0.350799 0.146036 1.15726e-20)
(0.845563 0.379195 8.72071e-21)
(1.1401 0.51896 6.91874e-20)
(1.26844 0.561665 1.32132e-20)
(1.29746 0.545505 -1.17477e-20)
(1.2846 0.505215 -6.06436e-21)
(1.26114 0.459946 3.77193e-20)
(1.23883 0.416154 3.1922e-20)
(1.21958 0.376678 1.63408e-20)
(1.20139 0.343992 -2.40921e-21)
(0.358337 0.164646 2.51206e-21)
(0.847068 0.413651 -5.62194e-20)
(1.12851 0.552607 -8.15621e-20)
(1.24618 0.589019 2.80364e-21)
(1.27025 0.566641 1.68206e-20)
(1.25694 0.521903 -2.35693e-20)
(1.23512 0.473593 -5.64985e-20)
(1.21495 0.427579 -1.74067e-20)
(1.19759 0.386552 -1.13155e-21)
(1.18144 0.35231 1.00613e-20)
(0.363331 0.183221 -2.01887e-20)
(0.843546 0.446725 5.13445e-20)
(1.11198 0.584039 4.92985e-20)
(1.22007 0.614086 -4.66152e-20)
(1.24036 0.585747 7.03294e-21)
(1.22747 0.536875 5.94204e-20)
(1.20777 0.48577 -1.47889e-20)
(1.18999 0.437724 1.22253e-20)
(1.17471 0.395246 -6.99447e-21)
(1.16077 0.359521 -9.58255e-21)
(0.36574 0.201498 -4.58279e-20)
(0.83522 0.477998 -8.08592e-20)
(1.09088 0.612951 -1.59919e-20)
(1.19033 0.636602 2.66328e-20)
(1.20809 0.602661 2.76195e-20)
(1.19637 0.549972 -6.02575e-20)
(1.17921 0.496347 3.47037e-20)
(1.16406 0.446478 -2.07104e-20)
(1.15101 0.402664 1.82115e-20)
(1.13947 0.36556 -2.94017e-23)
(0.365577 0.219216 3.48897e-20)
(0.822391 0.50708 2.14755e-21)
(1.06548 0.63907 -7.8848e-21)
(1.15729 0.656362 -3.41852e-20)
(1.1737 0.617163 2.40314e-20)
(1.16382 0.56107 4.11623e-21)
(1.14956 0.505205 -2.21939e-20)
(1.13725 0.453736 2.24043e-21)
(1.12658 0.408709 -6.172e-21)
(1.11764 0.370351 5.38934e-21)
(0.362912 0.236114 -9.86462e-21)
(0.80538 0.533675 -1.43837e-20)
(1.03586 0.661985 3.58497e-20)
(1.12147 0.673254 1.69034e-20)
(1.13748 0.629098 -2.3942e-20)
(1.12999 0.570027 3.88151e-20)
(1.11896 0.51223 1.83024e-21)
(1.10968 0.459402 1.16382e-21)
(1.10152 0.413279 -6.46785e-21)
(1.09535 0.373795 -7.36675e-22)
(0.357833 0.251896 6.47197e-20)
(0.784388 0.5576 5.01021e-20)
(1.00247 0.681461 -2.49964e-21)
(1.08331 0.686958 -8.8026e-21)
(1.09967 0.638399 -1.02379e-20)
(1.09507 0.576737 -5.38913e-21)
(1.08756 0.517323 7.54427e-22)
(1.08145 0.463394 3.36379e-21)
(1.07592 0.41628 6.71889e-21)
(1.0727 0.37579 1.81975e-21)
(0.350398 0.266241 6.73713e-21)
(0.759554 0.578413 9.56133e-21)
(0.966099 0.697529 -5.01669e-20)
(1.0431 0.697299 2.35992e-20)
(1.06053 0.644923 1.04144e-20)
(1.05926 0.581093 -2.4614e-20)
(1.05551 0.520392 7.23869e-21)
(1.05268 0.465636 9.99957e-22)
(1.04992 0.417643 -8.02344e-22)
(1.04993 0.376292 -1.41231e-21)
(0.340682 0.278925 -2.44613e-20)
(0.73123 0.595667 -1.90254e-20)
(0.927161 0.709916 1.82976e-20)
(1.00115 0.70425 7.02918e-21)
(1.02031 0.648571 -8.50167e-21)
(1.02276 0.583003 1.0547e-20)
(1.02294 0.521349 2.54154e-22)
(1.02346 0.466034 3.38539e-21)
(1.02377 0.417296 3.44185e-21)
(1.02778 0.375357 2.96876e-21)
(0.328919 0.289801 -2.0133e-20)
(0.69997 0.6092 5.62374e-20)
(0.885992 0.718401 -3.81873e-20)
(0.957803 0.70772 -3.86339e-21)
(0.979271 0.649259 -1.0196e-20)
(0.985734 0.58239 6.49714e-21)
(0.989953 0.520111 -3.03703e-22)
(0.993897 0.464446 6.04017e-22)
(0.997918 0.415018 2.53467e-21)
(1.00707 0.372991 -3.85118e-22)
(0.31532 0.298763 -1.32706e-22)
(0.666215 0.618874 -1.63309e-20)
(0.843 0.722826 1.21882e-20)
(0.913399 0.707632 -8.90776e-21)
(0.937681 0.646931 -2.37103e-21)
(0.948382 0.57921 1.89917e-21)
(0.956675 0.516641 4.03312e-21)
(0.964201 0.460782 -4.94802e-21)
(0.972733 0.410405 -1.03775e-20)
(0.987019 0.368377 6.1502e-21)
(0.300065 0.305635 3.21436e-21)
(0.630413 0.624562 3.52058e-22)
(0.798611 0.723102 3.44745e-22)
(0.868286 0.703926 -4.5413e-21)
(0.895803 0.64155 -1.01563e-21)
(0.910897 0.573438 -8.4542e-21)
(0.923307 0.510949 -2.11143e-21)
(0.93467 0.455195 -2.38907e-21)
(0.948173 0.403736 1.78884e-20)
(0.964335 0.357686 -2.59179e-21)
(0.283388 0.310283 -1.10004e-20)
(0.592999 0.626165 -5.96391e-21)
(0.753252 0.719184 3.40467e-21)
(0.822813 0.696573 1.73366e-21)
(0.853902 0.633094 -5.61311e-21)
(0.873503 0.565051 1.99729e-20)
(0.890125 0.503002 -1.64361e-20)
(0.905538 0.447766 2.03678e-20)
(0.923006 0.397068 -1.4189e-20)
(0.938803 0.352569 -2.00321e-20)
(0.265539 0.312606 3.95845e-21)
(0.554407 0.623619 -4.20104e-21)
(0.707345 0.711058 1.87148e-21)
(0.777323 0.685569 8.11343e-21)
(0.812246 0.621558 -5.09753e-21)
(0.836429 0.554034 7.54977e-21)
(0.857339 0.492747 9.25593e-21)
(0.876822 0.438188 -4.9514e-21)
(0.897709 0.387998 -1.58085e-20)
(0.91452 0.343676 2.12904e-20)
(0.246778 0.312531 4.67162e-21)
(0.515068 0.616896 5.43087e-21)
(0.661305 0.698744 -7.22031e-21)
(0.732153 0.670939 -6.05289e-21)
(0.771099 0.606962 2.97645e-20)
(0.799897 0.540407 -3.14206e-20)
(0.825098 0.480246 3.96727e-20)
(0.848516 0.426734 -9.71435e-21)
(0.87247 0.377672 1.05535e-20)
(0.890977 0.33459 2.09987e-20)
(0.227368 0.310014 -6.90988e-22)
(0.475411 0.60601 -7.00184e-21)
(0.61554 0.682291 -7.15993e-21)
(0.687635 0.65273 -3.01997e-21)
(0.730728 0.589345 5.67559e-21)
(0.76413 0.524196 -9.55457e-21)
(0.793577 0.465502 -1.17082e-20)
(0.820791 0.413318 -2.75615e-20)
(0.847684 0.365624 2.76831e-20)
(0.868337 0.323988 -8.50329e-21)
(0.207573 0.305038 1.94874e-20)
(0.435854 0.591008 -3.28384e-21)
(0.570442 0.66178 -1.02337e-20)
(0.644089 0.631019 1.19605e-20)
(0.691389 0.568766 -2.11266e-20)
(0.729338 0.505451 5.99716e-20)
(0.76294 0.448572 -3.23455e-20)
(0.793815 0.398038 2.96464e-20)
(0.82358 0.352036 -5.42982e-20)
(0.846619 0.312037 -1.45998e-20)
(0.187658 0.297618 -4.33917e-21)
(0.396808 0.571973 2.09325e-20)
(0.526393 0.637318 4.35827e-21)
(0.601826 0.605902 -1.16964e-20)
(0.653333 0.545305 -2.05179e-20)
(0.695729 0.484237 -2.02031e-23)
(0.733361 0.429508 1.07831e-20)
(0.767757 0.380925 -2.72042e-20)
(0.80032 0.336873 1.30461e-20)
(0.825857 0.298649 1.66931e-21)
(0.167879 0.28779 -3.6561e-20)
(0.358666 0.549026 -8.69198e-21)
(0.483757 0.609042 -2.69369e-21)
(0.561145 0.577501 3.13974e-20)
(0.616801 0.519064 -2.9729e-20)
(0.663503 0.460638 -7.35005e-21)
(0.705011 0.408385 -4.76852e-21)
(0.742778 0.362043 8.46801e-21)
(0.778048 0.32018 -1.12275e-20)
(0.806112 0.283867 -1.73455e-20)
(0.14849 0.275621 3.40454e-20)
(0.321807 0.522316 -1.97081e-20)
(0.442882 0.577118 7.0362e-22)
(0.522328 0.545961 -4.82362e-20)
(0.582025 0.490159 5.27288e-20)
(0.632852 0.434754 -1.67227e-20)
(0.678057 0.385289 1.00018e-20)
(0.719027 0.341461 8.79565e-21)
(0.756885 0.302 2.54904e-20)
(0.787455 0.267736 -1.07362e-20)
(0.129732 0.2612 -1.36892e-20)
(0.286591 0.492026 4.12649e-20)
(0.404097 0.541734 2.3478e-20)
(0.485645 0.511445 3.91851e-20)
(0.549223 0.458731 -8.92204e-21)
(0.60396 0.406702 3.68573e-21)
(0.652656 0.36032 2.96379e-20)
(0.696642 0.31926 6.75809e-21)
(0.736948 0.282398 6.56505e-22)
(0.76996 0.250326 -1.29634e-20)
(0.111835 0.24464 -3.34831e-20)
(0.253353 0.458365 -2.30828e-21)
(0.367707 0.503106 -1.4087e-20)
(0.451346 0.47414 -6.39284e-20)
(0.518601 0.424932 -6.20588e-20)
(0.577001 0.376613 1.02785e-20)
(0.628958 0.333589 -2.55197e-20)
(0.675753 0.295534 1.6546e-20)
(0.718346 0.261453 8.94817e-21)
(0.753701 0.231718 1.83402e-20)
(0.0950164 0.226077 5.04075e-20)
(0.222407 0.421573 -4.13109e-20)
(0.333998 0.46147 -2.11634e-20)
(0.419664 0.43425 3.70674e-20)
(0.49035 0.388936 4.26001e-20)
(0.552137 0.344633 -1.43455e-20)
(0.607102 0.305223 -1.96072e-21)
(0.656481 0.27039 -5.12351e-20)
(0.70118 0.239256 -2.89378e-20)
(0.738751 0.212005 1.10864e-20)
(0.0794752 0.205665 -2.88614e-20)
(0.19404 0.381911 1.21152e-20)
(0.303228 0.417085 4.5063e-20)
(0.390813 0.391997 -2.05682e-20)
(0.464646 0.350927 1.77774e-21)
(0.529517 0.310921 5.76407e-20)
(0.587215 0.275357 2.53982e-21)
(0.638935 0.243942 4.94802e-20)
(0.685549 0.215907 2.05985e-20)
(0.725176 0.191283 -3.27805e-20)
(0.0653941 0.183577 4.08307e-20)
(0.16851 0.339663 4.66813e-21)
(0.275631 0.370227 3.04115e-21)
(0.364984 0.347617 4.15576e-20)
(0.441648 0.311108 -5.43213e-21)
(0.509276 0.275648 -3.63073e-20)
(0.569413 0.244139 1.77953e-20)
(0.623219 0.216317 -2.85183e-20)
(0.671538 0.191518 -1.18435e-20)
(0.713038 0.169658 1.19717e-20)
(0.0529355 0.160004 -2.54203e-20)
(0.146048 0.295133 -4.91707e-20)
(0.251415 0.32119 1.14825e-20)
(0.342349 0.301364 -2.24207e-20)
(0.421497 0.26969 -1.34289e-20)
(0.491533 0.238996 3.27798e-20)
(0.553799 0.211727 -7.92263e-21)
(0.609421 0.187651 7.21686e-21)
(0.659227 0.166207 -8.84806e-21)
(0.702393 0.147239 1.76555e-20)
(0.0422413 0.135151 9.38238e-21)
(0.126853 0.248644 3.3318e-20)
(0.230759 0.270283 -4.64852e-20)
(0.323054 0.2535 2.18965e-20)
(0.404316 0.226898 -1.0006e-20)
(0.476393 0.201158 -2.81544e-20)
(0.540463 0.178284 2.30461e-20)
(0.597621 0.158086 4.77654e-21)
(0.648687 0.140101 -7.37594e-22)
(0.693289 0.124138 -2.05194e-20)
(0.0334309 0.109233 3.12026e-21)
(0.111091 0.200532 1.08876e-20)
(0.213813 0.217826 4.22735e-20)
(0.307223 0.204302 -8.15292e-21)
(0.390207 0.182965 -6.42694e-21)
(0.463945 0.162333 2.34805e-21)
(0.529482 0.143984 1.13041e-21)
(0.587887 0.12777 8.61399e-21)
(0.639976 0.11333 -1.13391e-20)
(0.685766 0.10047 -7.19814e-21)
(0.0266008 0.0824788 -7.73824e-21)
(0.0988967 0.151146 -1.32413e-20)
(0.200697 0.164153 -3.30878e-20)
(0.294957 0.154053 1.66644e-20)
(0.379254 0.13813 1.35602e-20)
(0.454258 0.122727 5.79266e-22)
(0.520915 0.109004 -2.26586e-20)
(0.580274 0.0968588 -1.00913e-20)
(0.633144 0.0860298 7.94383e-21)
(0.679859 0.0763534 8.52569e-21)
(0.0218233 0.0551223 1.36177e-21)
(0.0903703 0.100845 -2.81046e-21)
(0.191502 0.109601 6.26998e-21)
(0.286329 0.103042 -4.24164e-21)
(0.371519 0.0926412 -3.78038e-21)
(0.447386 0.0825525 -2.55704e-21)
(0.51481 0.073527 4.68274e-21)
(0.574822 0.0655093 1.78426e-20)
(0.628229 0.0583389 2.57192e-21)
(0.675591 0.0519011 -4.55572e-21)
(0.0191463 0.0274041 1.68066e-21)
(0.085578 0.0499917 -4.62278e-21)
(0.186287 0.0545182 -5.24173e-21)
(0.281388 0.0515665 -3.63479e-21)
(0.367042 0.0467485 3.45876e-21)
(0.443364 0.0420243 1.5596e-21)
(0.511197 0.0377387 -1.55174e-21)
(0.571559 0.033883 -7.07616e-21)
(0.625252 0.0303975 2.32884e-21)
(0.672972 0.0272277 -2.17489e-21)
(0.0185928 -0.000431847 -1.69562e-21)
(0.0845509 -0.00104314 4.66241e-21)
(0.18508 -0.000748173 5.28093e-21)
(0.280158 -7.63993e-05 -5.05077e-21)
(0.365844 0.000705346 4.44506e-21)
(0.442209 0.00136 2.22402e-21)
(0.51009 0.00182692 -3.54753e-21)
(0.570498 0.00214418 -4.12619e-21)
(0.624225 0.00235533 6.0941e-22)
(0.672001 0.00248974 -1.71412e-21)
(0.0201603 -0.0281408 1.85788e-21)
(0.0872855 -0.05189 -5.55357e-21)
(0.187877 -0.0558478 1.24994e-20)
(0.282637 -0.0515876 -1.09637e-20)
(0.367922 -0.0452345 -5.08448e-22)
(0.443921 -0.0392226 -7.25961e-21)
(0.51149 -0.0340209 1.17966e-20)
(0.571643 -0.0295457 1.60331e-20)
(0.625165 -0.0256511 2.87323e-21)
(0.672746 -0.0222267 -6.1769e-21)
(0.0238215 -0.0554795 -1.61697e-21)
(0.0937432 -0.10218 -1.18437e-20)
(0.194644 -0.110432 -2.74678e-20)
(0.288796 -0.102669 2.37335e-20)
(0.373253 -0.0908184 4.90757e-21)
(0.448478 -0.0795066 4.32178e-21)
(0.515379 -0.0696181 -2.13116e-20)
(0.574974 -0.061026 -1.25241e-20)
(0.628041 -0.0534857 -2.76676e-21)
(0.675123 -0.0468323 1.90966e-20)
(0.0295242 -0.0822083 -5.7108e-21)
(0.103851 -0.15155 7.11213e-21)
(0.205316 -0.164157 5.00158e-20)
(0.29858 -0.153027 -4.46176e-21)
(0.381793 -0.135796 -1.27897e-20)
(0.455843 -0.119278 9.19823e-21)
(0.521724 -0.104779 5.67246e-22)
(0.580465 -0.0921342 3.24531e-21)
(0.632831 -0.0809998 -7.06728e-21)
(0.679133 -0.071169 -1.86887e-20)
(0.0371914 -0.108094 -3.88215e-21)
(0.117501 -0.199643 2.102e-20)
(0.219796 -0.216683 -5.05005e-20)
(0.311911 -0.202372 2.19273e-20)
(0.393475 -0.179923 1.96645e-22)
(0.46596 -0.158325 -2.76994e-20)
(0.530478 -0.139323 1.21879e-20)
(0.588072 -0.122713 -1.10479e-21)
(0.6395 -0.108057 4.62921e-21)
(0.684757 -0.0951278 -1.44572e-21)
(0.0467226 -0.13291 -4.45024e-20)
(0.134552 -0.246112 -5.30295e-20)
(0.237956 -0.267681 1.38103e-20)
(0.328685 -0.250422 -2.50957e-20)
(0.408213 -0.222961 -7.15199e-21)
(0.478756 -0.196444 1.05432e-20)
(0.541577 -0.173073 3.93525e-21)
(0.59774 -0.15261 1.46245e-20)
(0.647999 -0.134522 -3.15375e-21)
(0.691959 -0.118597 1.6829e-20)
(0.0579942 -0.156444 4.25883e-20)
(0.15483 -0.290623 2.72822e-20)
(0.259641 -0.316832 -2.07749e-20)
(0.348772 -0.296904 3.48833e-20)
(0.4259 -0.264677 -3.04615e-21)
(0.49414 -0.233437 -3.75813e-20)
(0.554943 -0.205858 6.60538e-21)
(0.609401 -0.181678 -3.97747e-20)
(0.658266 -0.160267 1.49897e-21)
(0.700699 -0.141463 1.44559e-20)
(0.0708606 -0.178493 -3.1995e-20)
(0.17813 -0.332858 5.71232e-20)
(0.284665 -0.36383 2.23169e-20)
(0.372021 -0.341556 -2.74099e-20)
(0.446411 -0.304851 1.39773e-22)
(0.512005 -0.269114 6.94119e-20)
(0.570486 -0.237516 3.22216e-21)
(0.622974 -0.209774 3.07707e-20)
(0.670233 -0.185167 3.74359e-20)
(0.710928 -0.163616 -2.09687e-20)
(0.0851557 -0.19887 1.79521e-20)
(0.204215 -0.372515 -8.55116e-21)
(0.312815 -0.408384 -2.03266e-20)
(0.398256 -0.38413 1.54582e-20)
(0.469602 -0.343274 5.86387e-20)
(0.53223 -0.303296 -2.04632e-20)
(0.588099 -0.267891 -3.28102e-21)
(0.638368 -0.236768 -4.46351e-20)
(0.683819 -0.209105 -5.51535e-20)
(0.72259 -0.184948 2.40802e-20)
(0.100694 -0.217405 -2.41966e-20)