/*--------------------------------*- C++ -*----------------------------------*\
  =========                 |
  \\      /  F ield         | OpenFOAM: The Open Source CFD Toolbox
   \\    /   O peration     | Website:  https://openfoam.org
    \\  /    A nd           | Version:  7
     \\/     M anipulation  |
\*---------------------------------------------------------------------------*/
FoamFile
{
    version     2.0;
    format      ascii;
    class       volScalarField;
    location    "235";
    object      p;
}
// * * * * * * * * * * * * * * * * * * * * * * * * * * * * * * * * * * * * * //

dimensions      [0 2 -2 0 0 0 0];

internalField   nonuniform List<scalar> 
2125
(
-0.50757
-0.515939
-0.50978
-0.525277
-0.518023
-0.535545
-0.527084
-0.518946
-0.546702
-0.536951
-0.528108
-0.518177
-0.558703
-0.547605
-0.537988
-0.527063
-0.51425
-0.498427
-0.571488
-0.559011
-0.548544
-0.536402
-0.521629
-0.502845
-0.479343
-0.584971
-0.571107
-0.559697
-0.54608
-0.528899
-0.506728
-0.479595
-0.449262
-0.599039
-0.583798
-0.571328
-0.555935
-0.535854
-0.509932
-0.479118
-0.445748
-0.411723
-0.379544
-0.613539
-0.596945
-0.583274
-0.56575
-0.542271
-0.512323
-0.477856
-0.441647
-0.40577
-0.372173
-0.628277
-0.610365
-0.595326
-0.575262
-0.547919
-0.513773
-0.475747
-0.436908
-0.399365
-0.364479
-0.643015
-0.62383
-0.607226
-0.584175
-0.552573
-0.514157
-0.472723
-0.431476
-0.392439
-0.356386
-0.657474
-0.637068
-0.61867
-0.592173
-0.556015
-0.513356
-0.468711
-0.425282
-0.384919
-0.347817
-0.671339
-0.64977
-0.629317
-0.598939
-0.558039
-0.511252
-0.463631
-0.418254
-0.376728
-0.338703
-0.684261
-0.661594
-0.638797
-0.604161
-0.558454
-0.507734
-0.457402
-0.410314
-0.367791
-0.328976
-0.695868
-0.672171
-0.64673
-0.607548
-0.557081
-0.502692
-0.449941
-0.401388
-0.358034
-0.31858
-0.705776
-0.681119
-0.652739
-0.608828
-0.553764
-0.496026
-0.441168
-0.3914
-0.347394
-0.307471
-0.713597
-0.688048
-0.656464
-0.607761
-0.548359
-0.48764
-0.431003
-0.380281
-0.335816
-0.295616
-0.718951
-0.692575
-0.657576
-0.604136
-0.540745
-0.477451
-0.419375
-0.367962
-0.323249
-0.282995
-0.721473
-0.694334
-0.655785
-0.59778
-0.530822
-0.465386
-0.406217
-0.354378
-0.309636
-0.269566
-0.720831
-0.692989
-0.650846
-0.588554
-0.518513
-0.45139
-0.391481
-0.339478
-0.29491
-0.25519
-0.716727
-0.688245
-0.642563
-0.57636
-0.503764
-0.435423
-0.375137
-0.323249
-0.27903
-0.239595
-0.708908
-0.679859
-0.630786
-0.561135
-0.486545
-0.417459
-0.357162
-0.305695
-0.262057
-0.222636
-0.697174
-0.667648
-0.615416
-0.542851
-0.466848
-0.397489
-0.337536
-0.286796
-0.244065
-0.204775
-0.681379
-0.651483
-0.596402
-0.521515
-0.444692
-0.375518
-0.316269
-0.266549
-0.224777
-0.186477
-0.661436
-0.631298
-0.573744
-0.497168
-0.420116
-0.351582
-0.293439
-0.245106
-0.204271
-0.167485
-0.637315
-0.607082
-0.547485
-0.469896
-0.393187
-0.325761
-0.26915
-0.222351
-0.182745
-0.147687
-0.609045
-0.578884
-0.517728
-0.439821
-0.36399
-0.298175
-0.243372
-0.198364
-0.160272
-0.127095
-0.576711
-0.546826
-0.484674
-0.407022
-0.332641
-0.268848
-0.216195
-0.173235
-0.136908
-0.105782
-0.540449
-0.511113
-0.448629
-0.371437
-0.299254
-0.237908
-0.187722
-0.147056
-0.112725
-0.0838566
-0.50046
-0.472012
-0.409674
-0.333295
-0.263938
-0.205489
-0.158074
-0.119929
-0.0878094
-0.0614371
-0.456996
-0.429797
-0.367014
-0.293529
-0.226995
-0.171746
-0.12738
-0.0919597
-0.062247
-0.0386118
-0.410291
-0.384627
-0.321771
-0.251799
-0.188627
-0.136854
-0.0957818
-0.0632566
-0.0361255
-0.015468
-0.360576
-0.336177
-0.275092
-0.20839
-0.149009
-0.100992
-0.0634167
-0.0339156
-0.00958857
0.0076293
-0.308271
-0.285401
-0.2268
-0.163615
-0.108346
-0.0643347
-0.0303969
-0.00400763
0.0170752
0.0297475
-0.253903
-0.232592
-0.177031
-0.117761
-0.0668742
-0.0270573
0.00317382
0.0263687
0.0435036
0.0502201
-0.197737
-0.17825
-0.126085
-0.0711145
-0.0248392
0.0106478
0.0371269
0.0569402
0.0695541
0.0710829
-0.14021
-0.122806
-0.0743238
-0.0239693
0.0175067
0.048565
0.071189
0.0872499
0.0952044
0.0978565
-0.081778
-0.0666726
-0.022123
0.0233689
0.0599078
0.0864602
0.105077
0.11718
0.121509
0.124838
-0.0228993
-0.0102662
0.0301381
0.0705894
0.102102
0.124096
0.138616
0.146838
0.14814
0.150472
0.0359663
0.045992
0.0820834
0.117379
0.143824
0.161236
0.171633
0.1761
0.174595
0.175074
0.0943606
0.101681
0.133342
0.163427
0.184807
0.197656
0.203958
0.204785
0.200488
0.198617
0.15183
0.156382
0.183551
0.208426
0.224792
0.233136
0.235413
0.232706
0.225617
0.221161
0.20793
0.209688
0.232356
0.252079
0.263526
0.267462
0.265816
0.25968
0.249822
0.242684
0.262229
0.261202
0.279415
0.294096
0.300763
0.300427
0.294988
0.285546
0.272977
0.263139
0.314309
0.310543
0.324399
0.334199
0.336268
0.33183
0.322755
0.310151
0.294964
0.282459
0.363776
0.357349
0.366998
0.372125
0.369816
0.361481
0.348956
0.333355
0.315672
0.300574
0.410253
0.401278
0.406918
0.407628
0.401197
0.3892
0.373435
0.355027
0.334992
0.317408
0.453393
0.442012
0.443887
0.440474
0.430215
0.414819
0.396051
0.375045
0.352825
0.332892
0.492872
0.479259
0.477654
0.470453
0.456688
0.438183
0.416671
0.393296
0.369075
0.34696
0.5284
0.512756
0.507993
0.497372
0.480452
0.459152
0.435176
0.409678
0.383657
0.359551
0.559716
0.542267
0.534702
0.52106
0.501361
0.477603
0.451459
0.424099
0.396493
0.370614
0.586596
0.567587
0.557607
0.541369
0.519288
0.493425
0.465429
0.436478
0.407516
0.380102
0.608847
0.588545
0.576558
0.558172
0.534126
0.506528
0.477006
0.446748
0.416669
0.387979
0.626317
0.605001
0.591438
0.571369
0.545789
0.516838
0.486128
0.454853
0.423906
0.394216
0.638888
0.616851
0.602155
0.580884
0.55421
0.524298
0.492745
0.460752
0.429193
0.398799
0.586665
0.559346
0.52887
0.496827
0.464417
0.432508
0.40171
-0.279504
-0.290205
-0.300358
-0.309999
-0.319174
-0.327937
-0.336344
-0.344459
-0.259508
-0.269599
-0.279244
-0.288482
-0.297356
-0.305914
-0.314208
-0.322291
-0.240772
-0.250203
-0.259283
-0.268045
-0.276531
-0.284781
-0.292841
-0.300758
-0.223244
-0.232049
-0.240583
-0.248877
-0.256963
-0.264876
-0.272652
-0.280333
-0.206881
-0.215087
-0.223081
-0.230891
-0.238541
-0.246059
-0.253474
-0.260819
-0.191585
-0.199203
-0.20665
-0.213952
-0.221127
-0.228198
-0.235185
-0.242117
-0.177268
-0.184303
-0.191203
-0.197985
-0.204664
-0.211259
-0.217787
-0.22427
-0.163815
-0.170293
-0.176659
-0.182927
-0.189111
-0.195225
-0.201284
-0.207307
-0.15116
-0.157118
-0.16297
-0.168738
-0.174435
-0.180072
-0.185661
-0.191217
-0.139295
-0.144743
-0.150099
-0.155382
-0.160603
-0.165771
-0.170897
-0.175989
-0.12816
-0.13312
-0.138002
-0.14282
-0.147583
-0.152299
-0.156974
-0.161618
-0.117693
-0.122195
-0.126632
-0.131011
-0.135341
-0.139625
-0.143872
-0.148086
-0.107862
-0.111941
-0.115961
-0.119929
-0.12385
-0.127728
-0.131569
-0.135376
-0.0986291
-0.102318
-0.105953
-0.109539
-0.11308
-0.116579
-0.120041
-0.123469
-0.0899785
-0.0933105
-0.0965909
-0.0998232
-0.103012
-0.106159
-0.10927
-0.112345
-0.0818975
-0.0848978
-0.0878501
-0.0907569
-0.0936214
-0.0964461
-0.0992332
-0.101985
-0.104703
-0.0743603
-0.0770568
-0.079709
-0.0823186
-0.0848874
-0.0874171
-0.089909
-0.0923647
-0.0947859
-0.0673452
-0.0697678
-0.072149
-0.0744896
-0.0767905
-0.0790528
-0.0812772
-0.083465
-0.0856173
-0.0608417
-0.0630184
-0.0651557
-0.0672539
-0.0693134
-0.0713348
-0.0733186
-0.0752654
-0.077176
-0.0548396
-0.0567966
-0.0587157
-0.0605969
-0.0624406
-0.0642466
-0.0660154
-0.067747
-0.0694421
-0.0493316
-0.0510933
-0.0528185
-0.0545072
-0.0561591
-0.057774
-0.0593521
-0.0608931
-0.0623974
-0.0443132
-0.0459026
-0.0474568
-0.0489756
-0.0504585
-0.0519053
-0.0533156
-0.0546893
-0.0560264
-0.0397818
-0.0412207
-0.0426255
-0.0439959
-0.0453313
-0.0466314
-0.0478956
-0.0491237
-0.0503156
-0.0357375
-0.0370463
-0.0383223
-0.0395647
-0.0407729
-0.0419463
-0.0430845
-0.0441872
-0.0452541
-0.0321886
-0.0333861
-0.034552
-0.035685
-0.0367845
-0.0378499
-0.0388808
-0.0398768
-0.0408375
-0.0291468
-0.0302511
-0.0313245
-0.0323658
-0.0333745
-0.0343498
-0.0352912
-0.0361984
-0.0370708
-0.0266281
-0.0276564
-0.0286543
-0.029621
-0.0305558
-0.031458
-0.0323271
-0.0331625
-0.0339638
-0.024665
-0.0256343
-0.026574
-0.027483
-0.0283607
-0.0292066
-0.0300199
-0.0308002
-0.031547
-0.0232832
-0.0242108
-0.0251092
-0.0259777
-0.0268157
-0.0276225
-0.0283976
-0.0291403
-0.0298503
-0.0225729
-0.023474
-0.0243463
-0.0251892
-0.026002
-0.0267843
-0.0275355
-0.0282552
-0.028943
0.0640754
0.0427293
0.0234224
0.00405463
-0.0165074
-0.0372684
-0.0575762
-0.0774319
-0.0968638
-0.115782
-0.134097
-0.151755
-0.168706
-0.184893
-0.200322
-0.216012
-0.230497
-0.243825
-0.256344
-0.268223
0.0565986
0.0356052
0.015457
-0.00276198
-0.0214726
-0.040542
-0.0590981
-0.0770286
-0.0944893
-0.111482
-0.127941
-0.14384
-0.159198
-0.174009
-0.188209
-0.201126
-0.213949
-0.226256
-0.237891
-0.24895
0.0479255
0.0278851
0.00790507
-0.00911627
-0.0257343
-0.0427992
-0.0595554
-0.0756599
-0.0912632
-0.106455
-0.121191
-0.13542
-0.149121
-0.162262
-0.174796
-0.186744
-0.1986
-0.209968
-0.22072
-0.230958
0.0385519
0.0199592
0.00109344
-0.0145733
-0.0292601
-0.0443637
-0.0594074
-0.0738853
-0.0878423
-0.101416
-0.114604
-0.127354
-0.139634
-0.151414
-0.16267
-0.173436
-0.18439
-0.194812
-0.204684
-0.214135
0.0295232
0.012691
-0.00460545
-0.018898
-0.0319355
-0.0452759
-0.0587238
-0.0717365
-0.0842404
-0.0963724
-0.108179
-0.119628
-0.1307
-0.141411
-0.151783
-0.161802
-0.171173
-0.18052
-0.189642
-0.198419
0.0213686
0.00630887
-0.00926684
-0.0222262
-0.0338647
-0.0456624
-0.0576383
-0.069307
-0.0805141
-0.0913629
-0.101929
-0.112202
-0.122161
-0.131799
-0.141111
-0.150078
-0.158708
-0.167274
-0.175655
-0.183754
0.0142212
0.000796876
-0.0130458
-0.0247062
-0.0351266
-0.0455826
-0.0562191
-0.0666512
-0.0766914
-0.0863987
-0.0958535
-0.105066
-0.114017
-0.122699
-0.131115
-0.139275
-0.147184
-0.155009
-0.162653
-0.170065
0.00807675
-0.00387561
-0.0160528
-0.0264558
-0.0357892
-0.0450796
-0.0545168
-0.0638196
-0.0728058
-0.0814972
-0.0899639
-0.0982286
-0.106279
-0.114105
-0.121705
-0.129084
-0.13627
-0.143436
-0.150423
-0.157204
0.00290171
-0.00772506
-0.0183548
-0.0275674
-0.0359188
-0.0441934
-0.0525697
-0.0608521
-0.0688863
-0.0766706
-0.0842588
-0.0916778
-0.0989257
-0.105997
-0.112897
-0.119632
-0.126195
-0.132566
-0.138869
-0.145078
-0.00134821
-0.0107784
-0.0200089
-0.0281235
-0.0355856
-0.0429693
-0.0504124
-0.0577813
-0.0649576
-0.0719293
-0.0787334
-0.0853949
-0.091916
-0.0982923
-0.104523
-0.11061
-0.116552
-0.122335
-0.128071
-0.133736
-0.0047347
-0.0130866
-0.0210769
-0.0282002
-0.0348588
-0.0414553
-0.0480779
-0.054634
-0.0610396
-0.0672814
-0.073383
-0.0793637
-0.0852272
-0.090971
-0.0965942
-0.102098
-0.107485
-0.112753
-0.117967
-0.123109
-0.00733332
-0.014718
-0.0216242
-0.027866
-0.0338012
-0.039698
-0.0455976
-0.0514331
-0.0571489
-0.0627353
-0.0682066
-0.0735761
-0.0788474
-0.0840193
-0.0890915
-0.0940648
-0.0989418
-0.103724
-0.108454
-0.113113
-0.00922592
-0.0157475
-0.0217155
-0.0271819
-0.0324683
-0.0377412
-0.0430022
-0.0481998
-0.0533004
-0.0582993
-0.0632052
-0.0680259
-0.0727639
-0.0774185
-0.0819891
-0.0864764
-0.0908827
-0.0952129
-0.0994995
-0.103718
-0.0104949
-0.0162501
-0.0214127
-0.0262023
-0.0309091
-0.0356248
-0.0403206
-0.0449543
-0.0495078
-0.0539814
-0.0583806
-0.0627092
-0.0669682
-0.0711568
-0.0752743
-0.07932
-0.0832945
-0.0872001
-0.0910738
-0.0948832
-0.0112204
-0.016298
-0.0207738
-0.0249767
-0.0291677
-0.0333858
-0.0375809
-0.0417162
-0.0457841
-0.049789
-0.0537347
-0.0576224
-0.0614519
-0.0652228
-0.0689354
-0.0725908
-0.0761889
-0.0797273
-0.0831776
-0.0865969
-0.011479
-0.0159599
-0.0198534
-0.0235506
-0.0272844
-0.0310585
-0.0348098
-0.0385047
-0.0421422
-0.0457293
-0.0492692
-0.052761
-0.0562033
-0.0595951
-0.0629357
-0.0662248
-0.069461
-0.0726426
-0.075765
-0.0788508
-0.0113434
-0.0153007
-0.0187031
-0.0219663
-0.0252966
-0.0286753
-0.0320332
-0.0353394
-0.0385961
-0.0418118
-0.0449892
-0.0481266
-0.0512215
-0.0542725
-0.0572787
-0.0602396
-0.0631544
-0.0660221
-0.0688405
-0.0716204
-0.0108822
-0.0143818
-0.0173715
-0.020264
-0.0232396
-0.0262674
-0.0292773
-0.0322407
-0.0351612
-0.0380478
-0.040903
-0.0437244
-0.0465091
-0.0492554
-0.0519624
-0.0546292
-0.0572549
-0.0598385
-0.0623788
-0.0648815
-0.0101599
-0.0132607
-0.0159049
-0.0184822
-0.0211476
-0.023865
-0.0265679
-0.0292296
-0.0318542
-0.0344502
-0.0370198
-0.0395606
-0.0420694
-0.0445443
-0.0469841
-0.0493878
-0.0517545
-0.0540831
-0.0563725
-0.0586258
-0.00923684
-0.0119917
-0.0143476
-0.0166577
-0.0190531
-0.0214976
-0.0239304
-0.0263276
-0.0286926
-0.031033
-0.0333506
-0.0356432
-0.0379075
-0.0401416
-0.042344
-0.0445136
-0.0466495
-0.0487503
-0.0508151
-0.0528453
-0.00816975
-0.0106256
-0.0127417
-0.0148263
-0.0169883
-0.019194
-0.0213905
-0.0235565
-0.0256947
-0.0278112
-0.0299077
-0.0319818
-0.0340307
-0.0360521
-0.0380447
-0.0400071
-0.0419383
-0.043837
-0.045702
-0.0475341
-0.00701156
-0.00921051
-0.0111279
-0.0130231
-0.0149843
-0.0169827
-0.0189736
-0.0209388
-0.0228797
-0.0248013
-0.0267047
-0.0285877
-0.0304478
-0.0322827
-0.034091
-0.0358713
-0.0376223
-0.0393428
-0.0410317
-0.0426891
-0.00581194
-0.00779173
-0.00954514
-0.011282
-0.0130721
-0.014892
-0.0167054
-0.0184973
-0.0202679
-0.022021
-0.0237571
-0.0254743
-0.0271702
-0.0288427
-0.0304902
-0.0321114
-0.0337049
-0.0352695
-0.0368042
-0.0383093
-0.00461747
-0.00641216
-0.0080311
-0.00963666
-0.0112824
-0.0129503
-0.0146123
-0.016256
-0.017881
-0.0194898
-0.0210824
-0.0226571
-0.0242117
-0.0257443
-0.0272533
-0.0287372
-0.0301947
-0.0316244
-0.0330252
-0.0343968
-0.00347209
-0.00511269
-0.0066226
-0.00812064
-0.00964632
-0.0111867
-0.0127212
-0.01424
-0.0157422
-0.017229
-0.0187001
-0.0201541
-0.0215888
-0.0230025
-0.0243937
-0.025761
-0.027103
-0.0284183
-0.0297055
-0.0309613
-0.00241752
-0.00393272
-0.00535588
-0.00676758
-0.00819546
-0.00963125
-0.0110606
-0.0124762
-0.0138767
-0.0152623
-0.0166325
-0.0179857
-0.0193203
-0.0206345
-0.0219269
-0.0231959
-0.0244404
-0.025659
-0.0268504
-0.0280128
-0.00149411
-0.00291102
-0.00426759
-0.00561234
-0.00696334
-0.00831618
-0.00966174
-0.0109947
-0.0123135
-0.0136177
-0.0149064
-0.0161782
-0.0174316
-0.018665
-0.0198769
-0.0210662
-0.0222314
-0.0233713
-0.0244848
-0.0255706
-0.000741635
-0.00208664
-0.00339543
-0.00469154
-0.00598576
-0.00727673
-0.00855938
-0.00983004
-0.011087
-0.0123293
-0.0135558
-0.0147654
-0.0159565
-0.0171277
-0.0182777
-0.0194053
-0.0205093
-0.0215883
-0.0226413
-0.023667
-0.000200037
-0.00150008
-0.00277963
-0.00404486
-0.00530172
-0.00655107
-0.00779073
-0.00901825
-0.0102319
-0.0114305
-0.0126129
-0.0137779
-0.0149243
-0.0160508
-0.0171561
-0.0182392
-0.0192989
-0.0203341
-0.0213439
-0.0223273
9.28552e-05
-0.00119023
-0.00246182
-0.00371848
-0.00496284
-0.00619652
-0.0074188
-0.00862792
-0.00982216
-0.0110002
-0.0121608
-0.0133028
-0.0144253
-0.0155271
-0.016607
-0.017664
-0.0186972
-0.0197056
-0.0206882
-0.0216441
0.123328
0.125824
0.128826
0.134492
0.140068
0.147803
0.154683
0.162996
0.168829
0.174786
0.175175
0.173665
0.161059
0.143445
0.101956
0.122374
0.124744
0.127543
0.132822
0.137932
0.144933
0.150919
0.157959
0.162283
0.166184
0.164359
0.159741
0.144642
0.122799
0.0861506
0.121337
0.123566
0.126135
0.130987
0.135575
0.141783
0.146811
0.152534
0.155346
0.157277
0.153506
0.146371
0.130032
0.106972
0.0748703
0.120212
0.122285
0.124608
0.128997
0.133038
0.138405
0.14246
0.146823
0.148182
0.148174
0.142742
0.133459
0.116577
0.0931452
0.0634987
0.118996
0.120897
0.122964
0.126861
0.130339
0.134829
0.137918
0.140901
0.140896
0.139029
0.1322
0.121138
0.103955
0.080478
0.0523408
0.117683
0.119397
0.1212
0.124577
0.12748
0.131063
0.1332
0.134811
0.133538
0.129948
0.121947
0.109503
0.0921276
0.0689743
0.0422198
0.116271
0.117783
0.119313
0.122144
0.124463
0.127118
0.128323
0.128592
0.126148
0.121016
0.112035
0.0986004
0.081166
0.0586864
0.0333919
0.114757
0.116051
0.117302
0.119564
0.121293
0.123012
0.123311
0.122296
0.118778
0.112316
0.102523
0.0884617
0.0711317
0.0495679
0.0257873
0.113137
0.114198
0.115165
0.116843
0.117979
0.118768
0.118191
0.115977
0.11148
0.103916
0.0934712
0.0791012
0.0620431
0.0415308
0.0192776
0.111412
0.112226
0.112904
0.113989
0.114531
0.114413
0.112994
0.10969
0.10431
0.0958738
0.0849371
0.0705178
0.0538863
0.0344953
0.0137634
0.10958
0.110135
0.110521
0.111013
0.110962
0.109977
0.107753
0.103485
0.0973221
0.0882342
0.076965
0.0627001
0.0466302
0.028396
0.00916497
0.107642
0.10793
0.108019
0.107929
0.107289
0.105491
0.102506
0.097409
0.0905714
0.0810298
0.0695861
0.0556324
0.0402343
0.0231719
0.00540608
0.1056
0.105618
0.105405
0.104754
0.103532
0.100989
0.0972929
0.0915033
0.0841071
0.0742855
0.0628176
0.0492948
0.034651
0.0187594
0.00240895
0.103458
0.103207
0.102687
0.101505
0.0997148
0.0965003
0.0921557
0.0858049
0.077972
0.0680193
0.0566635
0.0436624
0.0298276
0.015091
9.55009e-05
0.101221
0.10071
0.0998788
0.0982017
0.0958642
0.0920573
0.0871357
0.0803468
0.0722007
0.0622431
0.051116
0.0387042
0.0257087
0.0120975
-0.00161106
0.0988989
0.0981415
0.0969956
0.0948659
0.0920106
0.0876905
0.0822726
0.0751583
0.0668181
0.056962
0.0461588
0.034383
0.0222368
0.00970967
-0.00278525
0.0965019
0.0955177
0.0940578
0.0915195
0.0881861
0.0834301
0.0776026
0.0702648
0.0618407
0.0521743
0.041768
0.0306566
0.0193533
0.00785986
-0.00349874
0.094045
0.0928575
0.0910896
0.0881864
0.0844236
0.0793059
0.0731574
0.0656874
0.0572767
0.0478714
0.0379149
0.0274798
0.0169995
0.00648216
-0.00381994
0.0915465
0.0901817
0.0881185
0.0848926
0.0807556
0.0753473
0.0689639
0.0614425
0.0531273
0.0440385
0.0345662
0.0248048
0.015117
0.00551295
-0.00381382
0.0890291
0.0875137
0.0851748
0.0816667
0.0772142
0.0715821
0.0650443
0.0575415
0.0493882
0.0406556
0.0316857
0.0225829
0.0136481
0.00489114
-0.00354186
0.0865194
0.0848791
0.0822912
0.0785396
0.0738304
0.0680367
0.0614166
0.0539911
0.0460503
0.0376988
0.0292351
0.0207654
0.012537
0.00455836
-0.00306209
0.0840486
0.0823072
0.0795019
0.0755442
0.0706344
0.0647353
0.0580949
0.0507934
0.0431007
0.0351415
0.0271748
0.0193039
0.0117297
0.00445915
-0.00242915
0.0816521
0.0798305
0.0768424
0.0727151
0.0676559
0.0617005
0.0550901
0.0479475
0.0405239
0.0329552
0.0254655
0.0181513
0.0111748
0.00454104
-0.00169443
0.0793694
0.0774858
0.0743502
0.0700884
0.0649246
0.0589532
0.0524112
0.0454497
0.0383029
0.0311113
0.0240683
0.0172625
0.0108235
0.00475462
-0.000906192
0.0772443
0.0753141
0.0720643
0.0677012
0.0624704
0.0565141
0.0500662
0.0432955
0.0364206
0.0295818
0.0229465
0.016595
0.0106299
0.00505351
-0.000109851
0.075325
0.0733607
0.0700271
0.065592
0.0603244
0.054404
0.0480633
0.0414809
0.0348608
0.0283406
0.0220659
0.0161093
0.0105516
0.00539431
0.000651739
0.0736641
0.0716761
0.0682839
0.0638018
0.0585194
0.052646
0.0464132
0.0400043
0.0336105
0.0273651
0.0213963
0.0157697
0.0105495
0.00573648
0.0013378
0.072319
0.0703153
0.0668848
0.062375
0.0570919
0.0512669
0.045131
0.0388691
0.0326618
0.0266378
0.0209122
0.0155453
0.0105885
0.00604247
0.00190923
0.0713525
0.0693393
0.0658856
0.0613612
0.0560838
0.0502994
0.0442384
0.0380859
0.0320143
0.0261488
0.0205954
0.0154107
0.0106381
0.00627796
0.00232849
0.0708326
0.0688151
0.0653497
0.0608191
0.0555462
0.049786
0.0437672
0.0376756
0.0316778
0.0258978
0.020436
0.015348
0.0106725
0.00641065
0.00255901
0.131842
0.135091
0.13881
0.14656
0.154266
0.165923
0.17792
0.193772
0.21056
0.231111
0.253188
0.278938
0.306309
0.337234
0.369199
0.13165
0.134885
0.13859
0.14631
0.153981
0.16559
0.177517
0.193291
0.209958
0.230383
0.252252
0.277783
0.304854
0.335435
0.366899
0.131432
0.134649
0.138338
0.14602
0.153649
0.165196
0.177032
0.1927
0.209196
0.229436
0.250997
0.276187
0.302747
0.332729
0.363324
0.131189
0.134383
0.138056
0.145691
0.153272
0.164741
0.176465
0.192
0.208275
0.228268
0.24942
0.274142
0.299991
0.32914
0.358511
0.13092
0.134091
0.137744
0.145324
0.15285
0.164225
0.175818
0.19119
0.207193
0.226879
0.247516
0.271647
0.296584
0.324669
0.352457
0.130626
0.133767
0.137402
0.144919
0.152383
0.16365
0.175091
0.190269
0.205952
0.22527
0.245289
0.268706
0.292535
0.319324
0.345173
0.130306
0.133417
0.137033
0.144478
0.151872
0.163016
0.174285
0.189241
0.204555
0.223444
0.242744
0.265329
0.287852
0.31312
0.336676
0.129962
0.133041
0.136635
0.143999
0.151319
0.162324
0.173403
0.188106
0.203006
0.221407
0.239887
0.261523
0.282546
0.306073
0.326989
0.129594
0.132639
0.136209
0.143486
0.150724
0.161575
0.172447
0.186866
0.201309
0.219162
0.236724
0.257299
0.276627
0.298201
0.316137
0.129202
0.132211
0.135755
0.142938
0.150088
0.160772
0.171419
0.185523
0.199468
0.216712
0.233264
0.252666
0.270108
0.289528
0.304155
0.128786
0.131758
0.135275
0.142357
0.149413
0.159914
0.170321
0.18408
0.197488
0.214063
0.229514
0.247635
0.263004
0.280077
0.291077
0.128348
0.131281
0.134768
0.141744
0.148699
0.159005
0.169155
0.18254
0.195374
0.211218
0.225484
0.242216
0.25533
0.269878
0.276946
0.127888
0.130779
0.134236
0.1411
0.147948
0.158046
0.167924
0.180905
0.193131
0.208183
0.221185
0.23642
0.247103
0.258961
0.261805
0.127406
0.130249
0.133678
0.140427
0.147161
0.157039
0.166631
0.179178
0.190764
0.204963
0.216627
0.230257
0.238344
0.24736
0.245698
0.126905
0.129715
0.133095
0.139726
0.14634
0.155986
0.165278
0.177364
0.188277
0.201562
0.211822
0.223735
0.229075
0.235112
0.228663
0.126382
0.129148
0.132489
0.138997
0.145485
0.154889
0.163865
0.175464
0.185675
0.197985
0.206782
0.216864
0.219325
0.222252
0.210733
0.125838
0.128562
0.131862
0.138243
0.144598
0.153748
0.162395
0.17348
0.182959
0.194235
0.201516
0.209651
0.209131
0.208821
0.191938
0.125274
0.127961
0.131217
0.137471
0.14369
0.152581
0.160887
0.171439
0.180158
0.190346
0.196058
0.202127
0.198549
0.194859
0.172255
0.124696
0.127345
0.130557
0.136687
0.14277
0.151405
0.159364
0.169372
0.177302
0.186353
0.190421
0.194285
0.187546
0.180288
0.151424
0.124093
0.126694
0.129841
0.135816
0.141727
0.150052
0.157612
0.166998
0.174069
0.181875
0.184241
0.185771
0.176
0.16475
0.128888
)
;

boundaryField
{
    inlet
    {
        type            zeroGradient;
    }
    outlet
    {
        type            fixedValue;
        value           nonuniform 0();
    }
    cylinder
    {
        type            zeroGradient;
    }
    top
    {
        type            symmetryPlane;
    }
    bottom
    {
        type            symmetryPlane;
    }
    defaultFaces
    {
        type            empty;
    }
    procBoundary2to0
    {
        type            processor;
        value           nonuniform List<scalar> 
26
(
0.646483
0.624025
0.608651
0.608651
0.588685
0.561174
0.530536
0.498355
0.465831
0.433829
0.402915
0.132008
0.135267
0.138999
0.146769
0.154502
0.16619
0.178232
0.194127
0.210977
0.231583
0.253726
0.279564
0.307043
0.338057
0.370115
)
;
    }
    procBoundary2to3
    {
        type            processor;
        value           nonuniform List<scalar> 
50
(
-0.500206
-0.502367
-0.502367
-0.502854
-0.510525
-0.510525
-0.509819
-0.509819
-0.506939
-0.506939
-0.49362
-0.47842
-0.47842
-0.452222
-0.452222
-0.417286
-0.417286
-0.386671
-0.352346
-0.352346
-0.330222
-0.308584
-0.287959
-0.268121
-0.249012
-0.230727
-0.213308
-0.196751
-0.18106
-0.166238
-0.152275
-0.139157
-0.126867
-0.11539
-0.11539
-0.107391
-0.0971745
-0.0877354
-0.0790513
-0.071101
-0.0638652
-0.0573268
-0.0514712
-0.046285
-0.0417626
-0.0379081
-0.0347307
-0.03226
-0.0305271
-0.0295986
)
;
    }
}


// ************************************************************************* //
