/*--------------------------------*- C++ -*----------------------------------*\
  =========                 |
  \\      /  F ield         | OpenFOAM: The Open Source CFD Toolbox
   \\    /   O peration     | Website:  https://openfoam.org
    \\  /    A nd           | Version:  7
     \\/     M anipulation  |
\*---------------------------------------------------------------------------*/
FoamFile
{
    version     2.0;
    format      ascii;
    class       surfaceScalarField;
    location    "215";
    object      phi;
}
// * * * * * * * * * * * * * * * * * * * * * * * * * * * * * * * * * * * * * //

dimensions      [0 3 -1 0 0 0 0];

internalField   nonuniform List<scalar> 
16735
(
-4.47119e-05
0.00180437
-0.00175966
-0.000195295
0.00496254
-0.00481195
-0.000466664
0.00781628
-0.00754492
-0.000853576
0.0102591
-0.00987217
-0.00132945
0.0123428
-0.0118669
-0.00185367
0.0142411
-0.0137169
-0.00238274
0.0161531
-0.015624
-0.00287914
0.0182115
-0.0177151
-0.00331393
0.0204297
-0.0199949
0.0226627
-0.022319
-0.00365763
-1.22439e-05
0.00181661
-8.70837e-05
0.00503738
-0.000251948
0.00798115
-0.000510565
0.0105177
-0.00084007
0.0126723
-0.00119676
0.0145978
-0.00152733
0.0164836
-0.00177848
0.0184626
-0.00190394
0.0205552
0.0226065
-0.00184773
1.85193e-05
0.00179809
1.78297e-05
0.00503806
-3.90092e-05
0.00803799
-0.000164433
0.0106431
-0.000338895
0.0128468
-0.000516187
0.0147751
-0.000633457
0.0166009
-0.000620922
0.0184501
-0.000409237
0.0203435
0.0221592
3.80024e-05
4.62457e-05
0.00175185
0.000115694
0.00496862
0.000164543
0.00798914
0.000174029
0.0106336
0.000159436
0.0128614
0.000168762
0.0147658
0.000273282
0.0164964
0.000557398
0.018166
0.00110795
0.0197929
0.0212428
0.00202443
7.01123e-05
0.00168174
0.000203329
0.0048354
0.00035245
0.00784002
0.000494028
0.0104921
0.000639715
0.0127157
0.000837897
0.0145676
0.00116622
0.0161681
0.00172209
0.0176101
0.00260726
0.0189078
0.0198933
0.00395676
8.93026e-05
0.00159243
0.000277619
0.00464708
0.000518113
0.00759952
0.000785
0.0102252
0.0010868
0.0124139
0.00147109
0.0141833
0.00201923
0.0156199
0.00283859
0.0167908
0.00404156
0.0177048
0.0181325
0.00580235
0.00010322
0.00148921
0.000336086
0.00441422
0.000655851
0.00727976
0.00103709
0.00984393
0.00148617
0.0119648
0.00204885
0.0136206
0.00280743
0.0148613
0.00387553
0.0157227
0.00536984
0.0162105
0.0159898
0.00751255
0.000111484
0.00137773
0.00037688
0.00414882
0.000761036
0.0068956
0.00124177
0.0093632
0.0018247
0.0113819
0.0025533
0.012892
0.00350833
0.0139063
0.00480601
0.014425
0.00655963
0.0144569
0.0134967
0.00905269
0.000113923
0.00126381
0.000398874
0.00386387
0.000830384
0.00646409
0.00139236
0.00880122
0.00209152
0.0106827
0.00296921
0.0120143
0.00410307
0.0127725
0.00560882
0.0129192
0.0075882
0.0124775
0.0106786
0.0104063
0.000110582
0.00115322
0.000401745
0.00357271
0.000862249
0.00600359
0.00148472
0.00817875
0.00227908
0.00988835
0.00328551
0.0110079
0.0045782
0.0114798
0.00627061
0.0112268
0.00844686
0.0103012
0.00754549
0.01158
0.000101723
0.0010515
0.000386068
0.00328836
0.00085694
0.00553271
0.00151793
0.00751776
0.00238444
0.00902184
0.00349732
0.00989502
0.00492879
0.0100483
0.00679013
0.00936549
0.00914911
0.00794225
0.00408269
0.0126119
8.7862e-05
0.000963638
0.000353432
0.00302279
0.000817083
0.00506906
0.00149517
0.00683968
0.00241096
0.00810605
0.00360885
0.00869713
0.00516298
0.00849417
0.00718487
0.00734361
0.00974268
0.00538444
0.0002434
0.013582
6.98131e-05
0.000893825
0.000306601
0.002786
0.000748003
0.00462766
0.00142458
0.0061631
0.00237014
0.0071605
0.00363677
0.0074305
0.00530755
0.00682339
0.00749955
0.0051516
0.0103185
0.00256545
-0.00405434
0.0146163
4.87524e-05
0.000845073
0.000249651
0.00258511
0.000658059
0.00421925
0.00132009
0.00550107
0.00228326
0.00619733
0.00361329
0.00610048
0.00541251
0.00502417
0.00781219
0.00275192
0.0110169
-0.00063925
-0.00889687
0.0158594
2.62618e-05
0.000818811
0.000188027
0.00242334
0.000558752
0.00384853
0.00120166
0.00485816
0.00218214
0.00521685
0.00358724
0.00469537
0.00555129
0.00306011
0.0082313
7.19158e-05
0.0119873
-0.00439522
-0.0143385
0.0174289
4.39573e-06
0.000814415
0.000128422
0.00229931
0.000464344
0.00351261
0.0010946
0.00422791
0.00210777
0.00420368
0.00362125
0.0031819
0.00581252
0.000868841
0.00888077
-0.00299634
0.0133458
-0.00886024
-0.0203357
0.019343
-1.51404e-05
0.000829556
7.82636e-05
0.00220591
0.000390783
0.00320009
0.00102742
0.00359127
0.00210616
0.00312494
0.00378357
0.00150449
0.00628666
-0.00163425
0.00986643
-0.0065761
0.0151195
-0.0141133
-0.0267096
0.0214934
-2.94294e-05
0.000858985
4.50431e-05
0.00213144
0.000353873
0.00289126
0.00102813
0.00291701
0.00222126
0.0019318
0.00413524
-0.000409487
0.00704116
-0.00454017
0.0112413
-0.0107763
0.0172187
-0.0200907
-0.0331764
0.0236856
-3.70555e-05
0.00089604
3.49488e-05
0.00205943
0.000367035
0.00255917
0.00111991
0.00216414
0.00248691
0.000564806
0.00471622
-0.0026388
0.00810428
-0.00792822
0.0129724
-0.0156444
0.0194595
-0.0265779
-0.0394278
0.0257109
-3.67498e-05
0.00093279
5.20505e-05
0.00197063
0.000439294
0.00217193
0.00131731
0.00128612
0.00292041
-0.0010383
0.00553552
-0.00525391
0.00945223
-0.0118449
0.0149292
-0.0211213
0.0216238
-0.0332725
-0.045339
0.027535
-2.81964e-05
0.000960987
9.82303e-05
0.00184421
0.000574184
0.00169598
0.00162434
0.000235969
0.00352031
-0.00293427
0.00656964
-0.00830323
0.0110116
-0.0162869
0.016915
-0.0270247
0.0235162
-0.0398737
-0.0527726
0.0309497
-1.12247e-05
0.000972211
0.000172826
0.00166016
0.000769755
0.00109905
0.00203503
-0.00102931
0.00426841
-0.00516765
0.0077688
-0.0118036
0.0126731
-0.0211912
0.0187714
-0.033123
0.0252424
-0.0463447
-0.0594018
0.0318716
1.31637e-05
0.000959048
0.000272934
0.00140039
0.00101976
0.000352222
0.00253582
-0.00254537
0.00513416
-0.00776599
0.00906602
-0.0157355
0.0143097
-0.0264349
0.0203937
-0.039207
0.0265026
-0.0524535
-0.0650648
0.0321656
4.2408e-05
0.00091664
0.000394404
0.00104839
0.00131551
-0.000568884
0.00310865
-0.00433851
0.00607929
-0.0107366
0.0103859
-0.0200421
0.0158093
-0.0318583
0.0216887
-0.0450864
0.0272492
-0.058014
-0.0699156
0.0321
7.6299e-05
0.000840341
0.00053319
0.000591499
0.00164768
-0.00168337
0.00373362
-0.00642445
0.0070614
-0.0140644
0.0116522
-0.0246329
0.0170849
-0.037291
0.0226002
-0.0506016
0.027546
-0.0629599
-0.074019
0.0316494
0.00011362
0.000726721
0.000685683
1.94363e-05
0.00200743
-0.00300513
0.00439028
-0.0088073
0.00803639
-0.0177105
0.0127961
-0.0293926
0.0180786
-0.0425735
0.0231235
-0.0556465
0.0274357
-0.0672721
-0.0774596
0.0308763
0.000153731
0.000572989
0.00084909
-0.000675923
0.00238667
-0.00454271
0.0050577
-0.0114783
0.00896056
-0.0216134
0.0137621
-0.0341941
0.0187638
-0.0475753
0.0232803
-0.060163
0.0269849
-0.0709767
-0.0803349
0.0298602
0.000196366
0.000376624
0.0010213
-0.00150085
0.00277756
-0.00629897
0.00571399
-0.0144148
0.0097932
-0.0256926
0.0145128
-0.0389137
0.0191394
-0.0522019
0.0231114
-0.0641349
0.0262583
-0.0741236
-0.0827322
0.0286556
0.000241466
0.000135158
0.00120038
-0.00245977
0.0031717
-0.00827029
0.00633631
-0.0175794
0.0104998
-0.0298561
0.0150293
-0.0434431
0.0192235
-0.0563961
0.0226649
-0.0675763
0.0253153
-0.076774
-0.0847329
0.0273159
0.00028898
-0.000153822
0.00138414
-0.00355493
0.00355954
-0.0104457
0.00690173
-0.0209216
0.0110548
-0.0340092
0.0153094
-0.0476977
0.0190458
-0.0601325
0.0219901
-0.0705207
0.0242078
-0.0789917
-0.0864042
0.0258792
0.000338705
-0.000492527
0.0015697
-0.00478593
0.00393019
-0.0128062
0.0073891
-0.0243805
0.0114433
-0.0380633
0.0153638
-0.0516182
0.0186417
-0.0634104
0.0211332
-0.0730121
0.0229786
-0.0808372
-0.0878015
0.024376
0.000390185
-0.000882712
0.00175337
-0.00614912
0.0042719
-0.0153247
0.00778107
-0.0278896
0.0116607
-0.041943
0.0152122
-0.0551697
0.0180482
-0.0662464
0.0201349
-0.0750989
0.021662
-0.0823643
-0.0889678
0.0228283
0.000442685
-0.0013254
0.00193073
-0.00763717
0.00457302
-0.017967
0.00806559
-0.0313822
0.0117114
-0.0455888
0.0148789
-0.0583372
0.0173005
-0.068668
0.0190301
-0.0768285
0.0202846
-0.0836189
-0.0899355
0.0212523
0.000495224
-0.00182062
0.00209686
-0.0092388
0.00482307
-0.0206932
0.0082366
-0.0347957
0.0116062
-0.0489584
0.0143903
-0.0611213
0.0164308
-0.0707085
0.0178472
-0.0782449
0.0188668
-0.0846384
-0.0907285
0.0196598
0.000546633
-0.00236725
0.00224669
-0.0109389
0.00501373
-0.0234602
0.00829373
-0.0380757
0.0113604
-0.052025
0.0137724
-0.0635333
0.015467
-0.0724031
0.0166094
-0.0793872
0.0174237
-0.0854527
-0.0913638
0.018059
0.000595635
-0.00296289
0.00237541
-0.0127186
0.0051394
-0.0262242
0.00824132
-0.0411777
0.0109913
-0.054775
0.0130499
-0.065592
0.014433
-0.0737862
0.0153345
-0.0802887
0.0159666
-0.0860848
-0.091853
0.0164559
0.000640921
-0.00360381
0.00247883
-0.0145565
0.00519749
-0.0289429
0.00808717
-0.0440673
0.0105172
-0.0572051
0.0122449
-0.0673196
0.0133486
-0.0748899
0.0140368
-0.080977
0.014504
-0.086552
-0.0922041
0.0148551
0.000681228
-0.00428504
0.00255362
-0.0164289
0.00518823
-0.0315775
0.00784137
-0.0467205
0.0099558
-0.0593195
0.0113767
-0.0687405
0.0122297
-0.0757429
0.012727
-0.0814743
0.013042
-0.086867
-0.092422
0.0132599
0.000715395
-0.00500043
0.00259753
-0.0183111
0.00511423
-0.0340942
0.0075152
-0.0491214
0.00932368
-0.061128
0.010462
-0.0698788
0.0110893
-0.0763702
0.0114133
-0.0817982
0.0115852
-0.0870389
-0.09251
0.0116732
0.000742421
-0.00574285
0.00260945
-0.0201781
0.00497992
-0.0364647
0.00712031
-0.0512618
0.00863593
-0.0626436
0.00951464
-0.0707575
0.00993776
-0.0767934
0.0101021
-0.0819626
0.0101373
-0.0870741
-0.0924703
0.0100975
0.000761498
-0.00650435
0.00258933
-0.0220059
0.00479097
-0.0386663
0.00666812
-0.053139
0.00790592
-0.0638814
0.00854636
-0.071398
0.00878299
-0.07703
0.00879814
-0.0819778
0.00870089
-0.0869768
-0.0923039
0.00853453
0.000772034
-0.00727639
0.0025381
-0.023772
0.00455376
-0.040682
0.0061694
-0.0547546
0.00714525
-0.0648573
0.00756657
-0.0718193
0.00763132
-0.0770947
0.007505
-0.0818514
0.00727829
-0.0867501
-0.0920108
0.00698516
0.000773664
-0.00805005
0.00245748
-0.0254558
0.00427492
-0.0424994
0.00563406
-0.0561138
0.00636385
-0.0655871
0.00658303
-0.0720385
0.00648765
-0.0769994
0.00622539
-0.0815892
0.00587108
-0.0863958
-0.0915904
0.00545073
0.000766242
-0.00881629
0.00234979
-0.0270393
0.00396106
-0.0441107
0.00507101
-0.0572237
0.00557014
-0.0660862
0.005602
-0.0720703
0.00535596
-0.0767533
0.0049615
-0.0811947
0.00448023
-0.0859145
-0.0910418
0.00393166
0.000749831
-0.00956612
0.00221769
-0.0285072
0.0036185
-0.0455115
0.00448807
-0.0580933
0.00477112
-0.0663692
0.00462854
-0.0719277
0.00423964
-0.0763644
0.00371603
-0.0806711
0.00310657
-0.0853051
-0.090361
0.00242575
0.000724706
-0.0102908
0.00206415
-0.0298467
0.00325314
-0.0467005
0.0038921
-0.0587323
0.00397262
-0.0664498
0.00366658
-0.0716217
0.00314133
-0.0758392
0.00249264
-0.0800224
0.00175273
-0.0845652
-0.0895331
0.000924809
0.000691348
-0.0109822
0.0018925
-0.0310478
0.00287047
-0.0476784
0.00328899
-0.0591508
0.00317943
-0.0663402
0.00271924
-0.0711615
0.0020626
-0.0751825
0.00129277
-0.0792526
0.000433117
-0.0837055
-0.088553
-0.000546945
0.000650385
-0.0116326
0.00170578
-0.0321032
0.00247539
-0.0484481
0.00268377
-0.0593592
0.00239545
-0.0660519
0.00178915
-0.0705552
0.00100525
-0.0743986
0.000101048
-0.0783484
-0.000875263
-0.0827292
-0.0874757
-0.00195262
0.000602556
-0.0122351
0.00150693
-0.0330076
0.00207235
-0.0490135
0.00208073
-0.0593675
0.00162373
-0.0655949
0.000878348
-0.0698098
-3.73735e-05
-0.0734829
-0.00104061
-0.0773452
-0.00215565
-0.0816142
-0.0862825
-0.00334882
0.000548695
-0.0127838
0.00129871
-0.0337576
0.00166533
-0.0493801
0.00148345
-0.0591857
0.000866493
-0.0649779
-1.75705e-05
-0.0689258
-0.00103636
-0.0724641
-0.00216742
-0.0762141
-0.00340362
-0.080378
-0.0849639
-0.00472221
0.000489714
-0.0132735
0.00108379
-0.0343517
0.00125772
-0.049554
0.000894838
-0.0588228
0.000127338
-0.0642104
-0.00087586
-0.0679226
-0.00201923
-0.0713207
-0.0032681
-0.0749652
-0.0046232
-0.0790229
-0.0835199
-0.00606717
0.000426555
-0.0137001
0.000864899
-0.03479
0.000852227
-0.0495414
0.000318877
-0.0582894
-0.000592133
-0.0632994
-0.00171905
-0.0667956
-0.00297686
-0.0700629
-0.00434063
-0.0736015
-0.0058139
-0.0775496
-0.0819524
-0.00738147
0.00036005
-0.0140601
0.000644713
-0.0350747
0.000452106
-0.0493488
-0.00024507
-0.0575922
-0.00129257
-0.0622519
-0.00253856
-0.0655497
-0.00390795
-0.0686935
-0.00538416
-0.0721253
-0.00697434
-0.0759594
-0.0802636
-0.00866315
0.000291215
-0.0143513
0.000424705
-0.0352082
7.2347e-05
-0.0489964
-0.000794172
-0.0567257
-0.00197322
-0.0610729
-0.00333359
-0.0641893
-0.00481189
-0.0672152
-0.0063982
-0.0705389
-0.00810336
-0.0742543
-0.0784573
-0.00990961
0.00022191
-0.0145733
0.000206491
-0.0351927
-0.000330534
-0.0484594
-0.00133019
-0.0557261
-0.00263252
-0.0597705
-0.00410352
-0.0627183
-0.0056881
-0.0656307
-0.00738229
-0.0688448
-0.00919984
-0.0724367
-0.0765402
-0.0111169
0.000151794
-0.0147251
1.25296e-05
-0.0350535
-0.000709773
-0.0477371
-0.00185103
-0.0545848
-0.0032702
-0.0583514
-0.00484777
-0.0611407
-0.00653607
-0.0639424
-0.00833582
-0.067045
-0.0102626
-0.0705099
-0.0745175
-0.0122854
7.54939e-05
-0.0148005
-0.000232717
-0.0347453
-0.00108003
-0.0468898
-0.00235369
-0.0533112
-0.00388556
-0.0568195
-0.00556607
-0.0594602
-0.00735553
-0.0621529
-0.00925838
-0.0651422
-0.011292
-0.0684763
-0.0723847
-0.0134247
-6.97395e-06
-0.0147936
-0.000452526
-0.0342997
-0.00143931
-0.045903
-0.00283747
-0.051913
-0.0044776
-0.0551794
-0.00625811
-0.0576797
-0.008147
-0.060264
-0.0101514
-0.0631378
-0.0122878
-0.0663398
-0.0701385
-0.0145341
-7.61272e-05
-0.0147174
-0.000661772
-0.0337141
-0.00178571
-0.044779
-0.0033023
-0.0503964
-0.0050458
-0.0534359
-0.00692339
-0.0558021
-0.00891113
-0.0582763
-0.0110185
-0.0610305
-0.0132464
-0.0641119
-0.0677972
-0.0155877
-0.000149052
-0.0145684
-0.000863439
-0.0329997
-0.0021184
-0.0435241
-0.00374756
-0.0487672
-0.00558956
-0.0515939
-0.00756094
-0.0538307
-0.00964571
-0.0561915
-0.011857
-0.0588192
-0.0142029
-0.061766
-0.0655161
-0.016484
-0.000220921
-0.0143475
-0.001058
-0.0321626
-0.00243689
-0.0421452
-0.00417275
-0.0470314
-0.00610854
-0.0496581
-0.00816989
-0.0517694
-0.0103458
-0.0540156
-0.0126358
-0.0565291
-0.0149979
-0.0594039
-0.0627061
-0.017808
-0.000290903
-0.0140566
-0.00124514
-0.0312084
-0.00274088
-0.0406494
-0.00457756
-0.0451947
-0.00660265
-0.047633
-0.00874971
-0.0496223
-0.0110082
-0.0517571
-0.0133728
-0.0541646
-0.0158606
-0.0569161
-0.0599138
-0.0186528
-0.000358618
-0.0136979
-0.00142438
-0.0301426
-0.00303007
-0.0390437
-0.00496177
-0.043263
-0.00707159
-0.0455232
-0.00930026
-0.0473936
-0.0116399
-0.0494175
-0.0140944
-0.0517101
-0.0166992
-0.0543113
-0.0571001
-0.019513
-0.000423793
-0.0132742
-0.00159527
-0.0289711
-0.00330417
-0.0373348
-0.00532515
-0.041242
-0.00751502
-0.0433333
-0.00982078
-0.0450879
-0.0122375
-0.0470008
-0.0147748
-0.0491727
-0.0174643
-0.0516217
-0.0542394
-0.0203249
-0.000486185
-0.012788
-0.00175742
-0.0276999
-0.00356296
-0.0355293
-0.00566757
-0.0391374
-0.00793285
-0.041068
-0.0103117
-0.042709
-0.0128024
-0.0445101
-0.0154179
-0.0465572
-0.0181831
-0.0488566
-0.0513199
-0.0211026
-0.000545575
-0.0122424
-0.00191053
-0.0263349
-0.00380621
-0.0336336
-0.00598891
-0.0369547
-0.00832496
-0.038732
-0.0107727
-0.0402613
-0.0133334
-0.0419494
-0.0160212
-0.0438695
-0.018856
-0.0460218
-0.0483357
-0.0218402
-0.000601767
-0.0116406
-0.00205431
-0.0248824
-0.00403376
-0.0316542
-0.00628908
-0.0346994
-0.00869129
-0.0363298
-0.0112038
-0.0377488
-0.0138303
-0.0393229
-0.0165852
-0.0411146
-0.019486
-0.043121
-0.0452859
-0.0225358
-0.000654582
-0.010986
-0.00218855
-0.0233484
-0.00424547
-0.0295973
-0.00656802
-0.0323768
-0.00903179
-0.033866
-0.0116048
-0.0351758
-0.0142926
-0.0366351
-0.01711
-0.0382971
-0.0200734
-0.0401576
-0.0421719
-0.0231874
-0.000703867
-0.0102822
-0.00231306
-0.0217392
-0.00444122
-0.0274691
-0.00682569
-0.0299924
-0.0093464
-0.0313453
-0.0119755
-0.0325467
-0.0147202
-0.0338903
-0.0175957
-0.0354216
-0.0206179
-0.0371355
-0.0389968
-0.0237931
-0.000749485
-0.0095327
-0.00242768
-0.020061
-0.00462095
-0.0252758
-0.00706205
-0.0275513
-0.00963507
-0.0287723
-0.0123158
-0.0298659
-0.0151131
-0.0310931
-0.0180422
-0.0324925
-0.0211191
-0.0340586
-0.0357641
-0.0243517
-0.000791317
-0.00874138
-0.00253227
-0.0183201
-0.00478456
-0.0230235
-0.00727708
-0.0250588
-0.00989775
-0.0261516
-0.0126257
-0.027138
-0.0154709
-0.0282479
-0.0184491
-0.0295143
-0.0215763
-0.0309314
-0.0324785
-0.024862
-0.000829262
-0.00791212
-0.00262673
-0.0165226
-0.00493201
-0.0207183
-0.00747074
-0.02252
-0.0101344
-0.0234879
-0.012905
-0.0243673
-0.0157936
-0.0253593
-0.0188162
-0.0264917
-0.0219892
-0.0277584
-0.0291445
-0.0253231
-0.000863233
-0.00704888
-0.00271097
-0.0146749
-0.00506326
-0.018366
-0.00764302
-0.0199403
-0.0103449
-0.020786
-0.0131536
-0.0215587
-0.0160809
-0.022432
-0.0191433
-0.0234292
-0.0223572
-0.0245446
-0.0257674
-0.0257343
-0.000893154
-0.00615573
-0.00278491
-0.0127831
-0.00517827
-0.0159726
-0.0077939
-0.0173246
-0.0105294
-0.0180506
-0.0133714
-0.0187166
-0.0163328
-0.0194707
-0.0194301
-0.0203319
-0.0226799
-0.0212949
-0.0223522
-0.0260951
-0.000918964
-0.00523677
-0.00284849
-0.0108536
-0.00527701
-0.0135441
-0.00792337
-0.0146783
-0.0106876
-0.0152863
-0.0135584
-0.0158459
-0.016549
-0.0164801
-0.0196764
-0.0172045
-0.0229571
-0.0180142
-0.0189044
-0.0264049
-0.000940609
-0.00429616
-0.00290166
-0.00889254
-0.00535947
-0.0110863
-0.00803143
-0.0120063
-0.0108197
-0.012498
-0.0137145
-0.0129511
-0.0167295
-0.013465
-0.0198821
-0.0140519
-0.0231885
-0.0147077
-0.0154293
-0.0266636
-0.000958047
-0.00333811
-0.00294438
-0.0069062
-0.00542561
-0.00860507
-0.00811805
-0.00931387
-0.0109256
-0.00969047
-0.0138396
-0.0100371
-0.0168743
-0.0104303
-0.0200469
-0.0108793
-0.0233741
-0.0113806
-0.0119324
-0.026871
-0.000971245
-0.00236686
-0.00297662
-0.00490083
-0.00547543
-0.00610625
-0.00818324
-0.00660606
-0.0110052
-0.00686848
-0.0139337
-0.00710869
-0.0169831
-0.00738088
-0.0201709
-0.00769143
-0.0235136
-0.00803795
-0.00841913
-0.0270268
-0.000980178
-0.00138669
-0.00299834
-0.00288267
-0.00550893
-0.00359567
-0.00822699
-0.003888
-0.0110586
-0.00403684
-0.0139967
-0.0041706
-0.017056
-0.00432159
-0.020254
-0.00449346
-0.023607
-0.00468494
-0.00489491
-0.0271312
-0.000984831
-0.000401856
-0.00300954
-0.000857958
-0.00552608
-0.00107913
-0.00824928
-0.0011648
-0.0110858
-0.00120036
-0.0140287
-0.00122767
-0.0170929
-0.00125735
-0.0202959
-0.00129045
-0.023654
-0.00132685
-0.0013659
-0.027183
-0.000985194
0.000583338
-0.00301022
0.00116706
-0.00552689
0.00143754
-0.00825013
0.00155844
-0.0110866
0.00163613
-0.0140296
0.00171529
-0.0170939
0.00180692
-0.0202969
0.00191259
-0.0236552
0.00203143
0.00216015
-0.0271812
-0.000981268
0.00156461
-0.00300036
0.00318615
-0.00551135
0.00394853
-0.00822952
0.00427661
-0.0110612
0.00446782
-0.0139994
0.0046535
-0.017059
0.00486647
-0.0202574
0.00511097
-0.0236108
0.00538491
0.00568711
-0.0271378
-0.000973061
0.00253767
-0.00297997
0.00519306
-0.00547947
0.00644803
-0.00818746
0.0069846
-0.0110095
0.0072899
-0.0139382
0.00758212
-0.016988
0.00791631
-0.0201765
0.00829949
-0.0235203
0.00872866
0.00920231
-0.0270355
-0.00096059
0.00349826
-0.00294908
0.00718155
-0.00543125
0.00893021
-0.00812393
0.00967728
-0.0109316
0.0100975
-0.0138458
0.0104963
-0.016881
0.0109515
-0.0200546
0.0114731
-0.0233831
0.0120572
0.0127014
-0.0268822
-0.000943879
0.00444214
-0.0029077
0.00914538
-0.0053667
0.0113892
-0.00803895
0.0123495
-0.0108273
0.0128859
-0.0137224
0.0133914
-0.016738
0.0139672
-0.0198917
0.0146267
-0.0231998
0.0153653
0.0161792
-0.0266776
-0.000922962
0.0053651
-0.00285587
0.0110783
-0.00528584
0.0138192
-0.00793252
0.0149962
-0.0106969
0.0156503
-0.0135679
0.0162624
-0.0165592
0.0169585
-0.0196879
0.0177553
-0.0229705
0.018648
0.0196302
-0.0264215
-0.000897883
0.00626298
-0.00279363
0.012974
-0.00518867
0.0162142
-0.00780464
0.0176122
-0.0105402
0.0183858
-0.0133825
0.0191047
-0.0163445
0.0199205
-0.0194433
0.0208541
-0.0226953
0.0219
0.023049
-0.0261141
-0.000868696
0.00713168
-0.00272104
0.0148264
-0.00507524
0.0185684
-0.00765533
0.0201923
-0.0103572
0.0210877
-0.0131661
0.0219136
-0.0160941
0.0228485
-0.019158
0.0239179
-0.0223742
0.0251163
0.0264302
-0.0257554
-0.000835466
0.00796714
-0.00263815
0.0166291
-0.00494556
0.0208758
-0.00748461
0.0227313
-0.0101481
0.0237512
-0.0129189
0.0246843
-0.0158081
0.0257378
-0.0188322
0.026942
-0.0220076
0.0282917
0.0297686
-0.0253459
-0.000798271
0.00876541
-0.00254506
0.0183759
-0.00479969
0.0231305
-0.00729248
0.0252241
-0.00991291
0.0263717
-0.0126409
0.0274123
-0.0154866
0.0285835
-0.0184661
0.0299216
-0.0215959
0.0314215
0.0330588
-0.0248861
-0.000757201
0.00952262
-0.00244186
0.0200605
-0.00463768
0.0253263
-0.00707899
0.0276654
-0.0096516
0.0289443
-0.0123322
0.0300928
-0.0151297
0.031381
-0.01806
0.0328519
-0.0211394
0.0345008
0.0362961
-0.0243766
-0.000712364
0.010235
-0.00232868
0.0216768
-0.00445958
0.0274572
-0.00684415
0.03005
-0.00936426
0.0314644
-0.0119929
0.0327215
-0.0147378
0.0341259
-0.0176142
0.0357283
-0.0206386
0.0375252
0.0394759
-0.0238183
-0.000663883
0.0108989
-0.00220565
0.0232186
-0.00426549
0.029517
-0.00658803
0.0323725
-0.00905095
0.0339273
-0.0116232
0.0352938
-0.0143108
0.0368135
-0.0171288
0.0385463
-0.020094
0.0404904
0.0425941
-0.0232123
-0.0006119
0.0115108
-0.00207294
0.0246796
-0.00405551
0.0314996
-0.00631067
0.0346277
-0.00871175
0.0363284
-0.0112232
0.0378052
-0.0138491
0.0394394
-0.0166041
0.0413014
-0.0195062
0.0433925
0.0456477
-0.0225598
-0.00055658
0.0120673
-0.00193076
0.0260538
-0.00382977
0.0333986
-0.00601214
0.0368101
-0.00834673
0.038663
-0.0107931
0.0402515
-0.0133527
0.041999
-0.0160401
0.0439887
-0.0188754
0.0462277
0.0486348
-0.0218624
-0.000498109
0.0125655
-0.00177936
0.0273351
-0.00358844
0.0352077
-0.00569254
0.0389142
-0.007956
0.0409264
-0.0103329
0.0426285
-0.0128221
0.0444882
-0.0154368
0.0466034
-0.0182014
0.0489924
0.0515556
-0.0211223
-0.000436698
0.0130021
-0.00161902
0.0285174
-0.00333173
0.0369204
-0.00535199
0.0409344
-0.00753963
0.043114
-0.00984297
0.0449318
-0.0122576
0.0469028
-0.0147936
0.0491394
-0.017482
0.0516808
0.0544151
-0.0203414
-0.000372584
0.0133747
-0.00145009
0.0295949
-0.00305988
0.0385302
-0.00499066
0.0428652
-0.00709781
0.0452212
-0.00932346
0.0471575
-0.0116602
0.0492396
-0.0141128
0.051592
-0.0167161
0.054284
0.0572252
-0.0195262
-0.000306031
0.0136808
-0.00127298
0.0305618
-0.00277319
0.0400304
-0.00460873
0.0447007
-0.00663064
0.0472431
-0.00877409
0.0493009
-0.011029
0.0514945
-0.0133913
0.0539543
-0.0158798
0.0567724
0.0600145
-0.0186691
-0.000237339
0.0139181
-0.00108815
0.0314126
-0.002472
0.0414143
-0.00420647
0.0464352
-0.00613856
0.0491752
-0.0081957
0.0513581
-0.0103672
0.0536659
-0.012654
0.0562411
-0.0150187
0.0591372
0.062826
-0.0178303
-0.000166885
0.014085
-0.000896117
0.0321419
-0.00215671
0.0426748
-0.0037842
0.0480627
-0.00562187
0.0510129
-0.00758836
0.0533246
-0.00966771
0.0557453
-0.0118731
0.0584465
-0.0142137
0.0614778
0.065108
-0.0164956
-9.53136e-05
0.0141803
-0.000697315
0.0327439
-0.00182777
0.0438053
-0.00334227
0.0495772
-0.00508073
0.0527513
-0.00695266
0.0551965
-0.00893414
0.0577268
-0.0110346
0.0605469
-0.0132557
0.0636989
0.067442
-0.0155897
-2.49368e-05
0.0142052
-0.000491688
0.0332106
-0.00148577
0.0447994
-0.00288125
0.0509727
-0.00451561
0.0543857
-0.00628966
0.0569705
-0.00817153
0.0596086
-0.0101684
0.0625438
-0.0122978
0.0658283
0.069679
-0.0145348
5.14774e-05
0.0141538
-0.000277586
0.0335397
-0.00113166
0.0456535
-0.0024018
0.0522428
-0.00392719
0.0559111
-0.00560042
0.0586438
-0.00738195
0.0613902
-0.00927622
0.0644381
-0.011301
0.0678531
0.0718025
-0.0134245
0.000126796
0.014027
-4.33952e-05
0.0337099
-0.000767285
0.0463774
-0.00190416
0.0533797
-0.00331612
0.057323
-0.00488547
0.0602131
-0.00656476
0.0630695
-0.0083545
0.0662278
-0.0102702
0.0697688
0.0738135
-0.0122812
0.000196469
0.0138305
0.000157914
0.0337484
-0.000394935
0.0469302
-0.00138882
0.0543736
-0.00268344
0.0586177
-0.00414523
0.0616749
-0.00571958
0.0646438
-0.00740214
0.0679103
-0.00920614
0.0715728
0.0757149
-0.0111075
0.000264082
0.0135664
0.000370015
0.0336425
1.2702e-05
0.0472875
-0.000858054
0.0552443
-0.00202989
0.0597895
-0.00338008
0.0630251
-0.00484685
0.0661106
-0.00641971
0.0694832
-0.00810872
0.0732618
0.0775017
-0.00989553
0.000330752
0.0132357
0.000583544
0.0333897
0.000375929
0.0474951
-0.000318515
0.0559388
-0.00135605
0.060827
-0.00259083
0.0642599
-0.00394727
0.067467
-0.005408
0.0709439
-0.00697924
0.0748331
0.0791676
-0.00864513
0.000394855
0.0128408
0.000797154
0.0329874
0.00076785
0.0475244
0.000237155
0.0564695
-0.000663639
0.0617278
-0.00177847
0.0653747
-0.00302159
0.0687101
-0.00436771
0.07229
-0.00581915
0.0762845
0.0807088
-0.00736037
0.000455612
0.0123852
0.00100912
0.0324339
0.00116366
0.0473699
0.000802351
0.0568308
4.59657e-05
0.0624842
-0.00094385
0.0663645
-0.00207064
0.0698369
-0.00329963
0.073519
-0.00462989
0.0776148
0.0821231
-0.00604414
0.000512163
0.011873
0.00121645
0.0317296
0.00156011
0.0470262
0.00137888
0.057012
0.000774218
0.0630889
-9.15575e-05
0.0672303
-0.00109585
0.0708412
-0.00220475
0.0746279
-0.00341315
0.0788232
0.0834086
-0.0046987
0.000563557
0.0113095
0.00141637
0.0308768
0.00195449
0.0464881
0.00196202
0.0570045
0.00151756
0.0635333
0.00078895
0.0679589
-0.000103866
0.071734
-0.0010852
0.0756093
-0.00216985
0.0799078
0.0845652
-0.00332646
0.000608927
0.0107005
0.00160625
0.0298795
0.00234324
0.0457511
0.00254867
0.056799
0.00227336
0.0638086
0.00168554
0.0685467
0.000922854
0.0724967
4.48784e-05
0.0764872
-0.000896873
0.0808496
0.0856019
-0.0019335
0.000647505
0.010053
0.00178335
0.0287436
0.00272229
0.0448122
0.00313506
0.0563863
0.00303886
0.0639048
0.00259886
0.0689868
0.00196595
0.0731296
0.00122521
0.077228
0.000401517
0.0816733
0.0865369
-0.000533543
0.000678622
0.00937442
0.00194486
0.0274774
0.00308717
0.0436699
0.00371667
0.0557568
0.00381058
0.0638109
0.00352651
0.0692708
0.00302709
0.0736291
0.00240979
0.0778453
0.00170949
0.0823736
0.087314
0.000932426
0.000701727
0.00867269
0.00208785
0.0260913
0.00343293
0.0423248
0.00428819
0.0549015
0.00458415
0.063515
0.00446533
0.0693896
0.00410452
0.0739899
0.00361495
0.0783348
0.00304778
0.0829407
0.0879415
0.00242023
0.000716422
0.00795627
0.00220926
0.0245984
0.0037542
0.0407799
0.00484351
0.0538122
0.00535434
0.0630041
0.0054117
0.0693323
0.00519619
0.0742054
0.00483821
0.0786928
0.00440215
0.0833768
0.0884332
0.0039105
0.000722512
0.00723376
0.00230643
0.0230145
0.0040452
0.0390411
0.0053756
0.0524818
0.0061149
0.0622648
0.00636109
0.0690861
0.00629878
0.0742677
0.00607542
0.0789162
0.00576952
0.0836827
0.0887923
0.0054104
0.000720005
0.00651376
0.00237703
0.0213575
0.00429989
0.0371182
0.00587654
0.0509052
0.00685835
0.061283
0.00730777
0.0686367
0.00740824
0.0741672
0.00732341
0.079001
0.00714825
0.0838578
0.08902
0.00692051
0.000709113
0.00580464
0.00241914
0.0196475
0.00451213
0.0350252
0.00633744
0.0490799
0.00757584
0.0600446
0.00824479
0.0679677
0.00851984
0.0738922
0.00857928
0.0789416
0.00853661
0.0839005
0.089117
0.00843968
0.000690258
0.00511438
0.00243151
0.0179062
0.00467589
0.0327809
0.00674865
0.0470071
0.00825709
0.0585362
0.00916365
0.0670612
0.00962781
0.073428
0.00983947
0.0787299
0.00993218
0.0838078
0.0890832
0.00996596
0.000664073
0.00445031
0.00241368
0.0161566
0.00478565
0.0304089
0.00709983
0.0446929
0.00889026
0.0567457
0.0100541
0.0658973
0.0107248
0.0727573
0.0110993
0.0783554
0.0113318
0.0835753
0.0889176
0.0114974
0.000631386
0.00381892
0.00236613
0.0144219
0.00483684
0.0279382
0.0073804
0.0421494
0.00946201
0.0546641
0.0109038
0.0644556
0.0118016
0.0718594
0.0123527
0.0778044
0.0127314
0.0831967
0.088618
0.013031
0.000593192
0.00322573
0.00229037
0.0127247
0.00482632
0.0254022
0.00757993
0.0393957
0.0099576
0.0522865
0.0116981
0.0627151
0.0128468
0.0707108
0.0135919
0.0770592
0.0141261
0.0826625
0.0881811
0.0145629
0.00055062
0.00267511
0.00218893
0.0110864
0.00475289
0.0228383
0.00768888
0.0364598
0.0103612
0.0496141
0.01242
0.0606564
0.0138459
0.0692848
0.014807
0.0760982
0.0155094
0.0819601
0.0876019
0.0160886
0.000504881
0.00217023
0.00206527
0.00952598
0.00461779
0.0202857
0.00769945
0.0333781
0.0106567
0.0466569
0.01305
0.0582631
0.0147816
0.0675532
0.015985
0.0748948
0.016873
0.0810721
0.0868723
0.0176026
0.000457228
0.001713
0.00192364
0.00805957
0.00442495
0.0177844
0.00760669
0.0301964
0.0108281
0.0434355
0.0135665
0.0555246
0.0156328
0.0654869
0.0171096
0.073418
0.0182058
0.0799759
0.0859802
0.0190979
0.00040891
0.00130409
0.00176885
0.00669963
0.00418108
0.0153722
0.00740958
0.0269679
0.0108614
0.0399836
0.0139468
0.0524393
0.0163751
0.0630586
0.0181602
0.0716329
0.0194934
0.0786427
0.0849083
0.0205652
0.000361136
0.000942956
0.00160598
0.00545479
0.00389536
0.0130828
0.00711207
0.0237512
0.0107462
0.0363495
0.0141673
0.0490182
0.0169802
0.0602457
0.0191112
0.0695019
0.0207166
0.0770373
0.0836327
0.0219923
0.000315047
0.000627909
0.00144018
0.00432966
0.00357886
0.0109441
0.0067237
0.0206063
0.0104774
0.0325958
0.0142064
0.0452891
0.0174173
0.0570348
0.0199318
0.0669874
0.0218508
0.0751183
0.0821211
0.0233623
0.000271687
0.000356222
0.00127634
0.003325
0.00324378
0.0089767
0.0062595
0.0175906
0.0100573
0.028798
0.0140465
0.0413
0.0176542
0.0534271
0.0205859
0.0640557
0.0228644
0.0728398
0.0803324
0.0246532
0.000231962
0.000124259
0.00111893
0.00243803
0.00290237
0.00719327
0.00573897
0.014754
0.00949789
0.025039
0.0136769
0.037121
0.0176596
0.0494444
0.0210325
0.0606828
0.0237185
0.0701538
0.0782155
0.0258354
0.000196582
-7.23232e-05
0.000971636
0.00166298
0.00256598
0.00559893
0.00518425
0.0121357
0.00882021
0.0214031
0.0130981
0.0328431
0.0174074
0.0451351
0.0212284
0.0568618
0.0243663
0.0670159
0.0757114
0.0268705
0.000165978
-0.000238301
0.000837113
0.00099184
0.00224399
0.00419204
0.00461751
0.0097622
0.00805364
0.017967
0.0123238
0.0285729
0.0168808
0.0405781
0.021131
0.0526116
0.024754