/*--------------------------------*- C++ -*----------------------------------*\
  =========                 |
  \\      /  F ield         | OpenFOAM: The Open Source CFD Toolbox
   \\    /   O peration     | Website:  https://openfoam.org
    \\  /    A nd           | Version:  7
     \\/     M anipulation  |
\*---------------------------------------------------------------------------*/
FoamFile
{
    version     2.0;
    format      ascii;
    class       volVectorField;
    location    "215";
    object      U;
}
// * * * * * * * * * * * * * * * * * * * * * * * * * * * * * * * * * * * * * //

dimensions      [0 1 -1 0 0 0 0];

internalField   nonuniform List<vector> 
8500
(
(-0.00157644 0.0518417 1.06679e-21)
(-0.00684181 0.131508 -3.04607e-21)
(-0.0170596 0.191113 -3.54164e-21)
(-0.0305924 0.231601 3.51552e-21)
(-0.0460401 0.257562 -3.23637e-21)
(-0.0615778 0.275101 -1.733e-21)
(-0.0755344 0.289284 2.98541e-21)
(-0.0868665 0.3027 3.74365e-21)
(-0.0947599 0.315346 -6.32111e-22)
(-0.0981037 0.324976 1.88502e-21)
(-0.00309173 0.052592 -1.17622e-21)
(-0.00930717 0.134331 3.62204e-21)
(-0.0180248 0.196133 -8.49322e-21)
(-0.0288898 0.238337 7.68668e-21)
(-0.040997 0.265096 3.3649e-22)
(-0.0528212 0.28239 5.66229e-21)
(-0.062736 0.295455 -9.91999e-21)
(-0.0695085 0.307195 -1.47139e-20)
(-0.0721242 0.317932 -2.95701e-21)
(-0.0686034 0.325582 6.8345e-21)
(-0.00462665 0.052378 1.09179e-21)
(-0.0119495 0.135127 7.97523e-21)
(-0.0193068 0.198679 1.87073e-20)
(-0.0274917 0.242543 -1.68811e-20)
(-0.0360638 0.270227 -3.81142e-21)
(-0.0438179 0.287417 -3.4919e-21)
(-0.0492052 0.2994 1.79033e-20)
(-0.0508237 0.30934 1.12665e-20)
(-0.047536 0.317896 2.84256e-21)
(-0.0362961 0.323462 -2.11892e-20)
(-0.0060997 0.0512692 3.8775e-21)
(-0.0146413 0.133955 -4.68946e-21)
(-0.0208349 0.198721 -3.48608e-20)
(-0.0264229 0.244094 3.07727e-21)
(-0.031373 0.272775 9.53727e-21)
(-0.0348044 0.289987 -7.44185e-21)
(-0.0352941 0.300936 -4.29572e-22)
(-0.0313127 0.308978 -3.08896e-21)
(-0.0215965 0.315104 7.15243e-21)
(-0.00213761 0.318341 2.13128e-20)
(-0.00744249 0.0493703 2.71352e-21)
(-0.0172657 0.130941 -1.50293e-20)
(-0.0225407 0.196305 3.59747e-20)
(-0.0257052 0.242929 -1.62829e-20)
(-0.0270543 0.272603 -7.76533e-23)
(-0.0260227 0.289933 2.25431e-20)
(-0.0213622 0.299914 -1.04563e-20)
(-0.0114771 0.306007 1.32213e-21)
(0.00490008 0.309514 -4.35223e-21)
(0.0329817 0.309868 1.48607e-21)
(-0.00860416 0.0468131 3.21716e-20)
(-0.0197248 0.126274 3.86226e-20)
(-0.0243609 0.191548 -9.84607e-21)
(-0.0253575 0.239053 1.86853e-20)
(-0.0232318 0.269622 5.81502e-21)
(-0.0177105 0.287125 -8.38875e-21)
(-0.00776567 0.296214 -3.21126e-21)
(0.00820861 0.300357 -1.43253e-20)
(0.0312379 0.301133 3.0705e-21)
(0.0681836 0.298183 -1.98396e-20)
(-0.00955451 0.0437506 -3.09856e-20)
(-0.0219482 0.120202 -2.00851e-20)
(-0.0262434 0.184645 1.62593e-20)
(-0.025394 0.232547 -2.79268e-20)
(-0.0200169 0.263799 3.10455e-21)
(-0.0100889 0.281465 3.26989e-20)
(0.00516025 0.289739 -5.84974e-21)
(0.027313 0.29199 3.97635e-20)
(0.0568191 0.290009 -7.15917e-22)
(0.102754 0.283411 -1.68481e-20)
(-0.0102863 0.0403491 2.57875e-20)
(-0.0238989 0.113017 -4.61315e-20)
(-0.0281534 0.175859 -1.81731e-20)
(-0.0258236 0.223566 2.1381e-20)
(-0.0174991 0.255168 6.01978e-22)
(-0.00334623 0.272902 -6.11463e-20)
(0.0171228 0.280416 -3.56068e-21)
(0.045473 0.280889 -3.07888e-20)
(0.0811609 0.276226 -4.07299e-20)
(0.13623 0.26562 2.46861e-20)
(-0.0108164 0.0367802 -1.44694e-20)
(-0.0255765 0.10504 6.85715e-21)
(-0.0300757 0.16551 1.68352e-20)
(-0.0266479 0.212339 -1.47066e-20)
(-0.0157348 0.243835 -5.19609e-20)
(0.00238243 0.261438 1.80561e-20)
(0.0279012 0.268202 2.76653e-21)
(0.0624305 0.267048 4.58974e-20)
(0.103923 0.259881 6.20552e-20)
(0.168495 0.244854 -2.8753e-20)
(-0.0111849 0.0332119 2.25005e-20)
(-0.0270179 0.096608 2.024e-20)
(-0.0320145 0.153966 -2.88597e-21)
(-0.027855 0.19917 7.36925e-20)
(-0.014731 0.229986 3.11847e-20)
(0.0070451 0.247147 2.33921e-20)
(0.0373924 0.253092 3.32285e-20)
(0.0780958 0.250478 -1.51043e-20)
(0.124984 0.241067 -2.06559e-20)
(0.199969 0.221163 -3.47401e-20)
(-0.0114524 0.0298013 -2.19702e-21)
(-0.0282923 0.0880512 -3.16486e-20)
(-0.0339864 0.14162 -2.26492e-20)
(-0.0294075 0.184423 -3.61879e-20)
(-0.0144202 0.213898 -2.8487e-20)
(0.0107175 0.230194 2.85562e-20)
(0.0456858 0.235157 -2.75115e-20)
(0.0926573 0.231245 -1.94397e-20)
(0.144614 0.219858 2.50554e-21)
(0.231935 0.194685 9.28793e-21)
(-0.0116957 0.0266872 -6.10895e-20)
(-0.0294913 0.0796794 2.90014e-20)
(-0.0360072 0.128874 2.09586e-20)
(-0.0312212 0.168516 1.38118e-20)
(-0.0146239 0.195937 -2.49032e-20)
(0.0136683 0.210856 -2.12058e-20)
(0.0531766 0.214577 3.0713e-20)
(0.106748 0.209531 -2.51084e-20)
(0.163775 0.196316 -1.1025e-21)
(0.266974 0.165836 -2.73746e-20)
(-0.012 0.0239828 5.06939e-20)
(-0.0307116 0.0717632 2.03351e-20)
(-0.0380687 0.116115 1.20007e-21)
(-0.0331343 0.151901 -2.52479e-20)
(-0.0150022 0.176557 1.95071e-21)
(0.0164452 0.189547 2.73192e-20)
(0.0607162 0.191699 -7.7764e-21)
(0.121646 0.185705 -9.45938e-21)
(0.184532 0.170541 -2.24981e-20)
(0.309024 0.135779 4.16114e-20)
(-0.0124489 0.0217686 3.36726e-20)
(-0.0320335 0.0645193 -5.4797e-20)
(-0.0401094 0.1037 -4.17569e-20)
(-0.0348675 0.135047 1.80823e-20)
(-0.0149949 0.156297 3.64178e-20)
(0.0199712 0.166826 3.03075e-20)
(0.0697668 0.167079 -3.23648e-20)
(0.139454 0.160373 6.35255e-20)
(0.210539 0.142836 -1.91274e-20)
(0.362962 0.106287 -4.88093e-20)
(-0.0131118 0.0200854 -5.09879e-20)
(-0.0334951 0.0580972 3.05503e-20)
(-0.0419821 0.0919327 -1.4214e-20)
(-0.0359853 0.118417 1.50789e-21)
(-0.0137687 0.135757 1.50389e-20)
(0.0256159 0.143392 -4.79411e-20)
(0.0824842 0.141508 4.25347e-20)
(0.163093 0.13435 -4.14564e-20)
(0.246884 0.113922 6.88031e-20)
(0.432843 0.0794074 2.564e-20)
(-0.01403 0.0189292 1.05472e-20)
(-0.0350687 0.0525684 5.86152e-20)
(-0.0434283 0.0810453 -1.45226e-20)
(-0.0358705 0.10244 1.46769e-20)
(-0.0101982 0.115562 1.66648e-20)
(0.0351949 0.120051 -4.94277e-21)
(0.101623 0.116005 3.59983e-20)
(0.196009 0.108631 1.52514e-21)
(0.299321 0.0853735 -4.44612e-20)
(0.519447 0.0571464 6.0757e-20)
(-0.0152082 0.0182522 -2.84745e-20)
(-0.03664 0.0479162 -5.53785e-20)
(-0.0440669 0.0711822 4.77955e-20)
(-0.0337302 0.0874772 2.36612e-20)
(-0.00290675 0.0963117 -1.08842e-19)
(0.0508497 0.0976501 8.79903e-20)
(0.13024 0.0917413 -7.92921e-20)
(0.241691 0.0841902 1.00215e-21)
(0.372415 0.0596791 -1.87371e-20)
(0.618781 0.0408016 -5.6637e-20)
(-0.0166061 0.0179553 2.43873e-20)
(-0.0380084 0.0440367 -3.23187e-21)
(-0.0434044 0.0623881 -1.1731e-20)
(-0.0286418 0.0737853 -1.45369e-21)
(0.00961423 0.078516 -6.79595e-21)
(0.0747837 0.0769751 -2.80405e-20)
(0.171091 0.0698511 1.1963e-20)
(0.302967 0.0619316 -1.88302e-20)
(0.467245 0.0397325 5.49069e-21)
(0.722719 0.030823 1.385e-21)
(-0.0181309 0.0179009 -4.97578e-20)
(-0.0388907 0.0407538 -3.50508e-21)
(-0.0408698 0.0546003 5.38564e-21)
(-0.0196365 0.061491 2.20613e-21)
(0.0288277 0.0625395 3.55626e-20)
(0.108922 0.0586575 -1.02925e-19)
(0.226033 0.0512595 6.91483e-20)
(0.381225 0.0429084 -5.18451e-20)
(0.579799 0.0277253 4.53725e-20)
(0.822398 0.0261605 5.16601e-20)
(-0.0196516 0.0179318 -5.99334e-21)
(-0.0389431 0.0378319 2.7649e-20)
(-0.0358588 0.0476559 -3.44475e-20)
(-0.00579502 0.0505847 -1.07192e-20)
(0.0559648 0.0485774 2.05353e-20)
(0.154588 0.0431238 9.80179e-20)
(0.295569 0.0365289 -1.96068e-20)
(0.475682 0.0284378 9.39899e-21)
(0.701381 0.0239273 -5.20122e-20)
(0.913189 0.0228612 2.40458e-20)
(-0.0210087 0.0178861 -1.81112e-20)
(-0.0377887 0.0350031 -1.40864e-20)
(-0.0277821 0.04132 3.52691e-21)
(0.0136719 0.0409467 1.35128e-20)
(0.0918929 0.0366777 -3.98521e-20)
(0.212309 0.0306239 -1.59905e-20)
(0.378741 0.0258965 -5.0351e-20)
(0.582732 0.0198868 5.20775e-20)
(0.820948 0.0255895 5.60813e-20)
(0.995855 0.0142161 -2.45552e-20)
(-0.0220238 0.0176107 -8.66668e-21)
(-0.0350437 0.0320048 3.52628e-20)
(-0.0161023 0.0353348 -3.92397e-20)
(0.0393802 0.0324009 -4.60757e-21)
(0.137067 0.0268081 -1.84614e-20)
(0.281762 0.0213121 3.98646e-20)
(0.473319 0.0194867 5.11214e-20)
(0.696277 0.0176958 -4.92347e-20)
(0.929296 0.0276774 5.31212e-20)
(1.10176 0.0118717 7.29287e-21)
(-0.0225096 0.0169854 -2.51704e-20)
(-0.0303336 0.0286232 -7.13117e-20)
(-0.000346785 0.0294711 6.94976e-20)
(0.0717686 0.0247854 9.94044e-21)
(0.191549 0.0189447 1.43303e-20)
(0.361827 0.0153246 9.03424e-21)
(0.575961 0.0174058 3.94224e-20)
(0.80929 0.0206337 2.89988e-20)
(1.02982 0.0323423 -1.03463e-19)
(1.18877 0.0206851 -5.11029e-20)
(-0.0222985 0.0159486 -8.60031e-20)
(-0.0232925 0.0247158 1.72684e-20)
(0.0198976 0.0235793 -3.94555e-20)
(0.111119 0.018027 7.63336e-21)
(0.255036 0.0131565 1.20978e-20)
(0.45067 0.0128133 -8.74545e-20)
(0.682473 0.0195878 3.87939e-20)
(0.916712 0.0275387 -2.60943e-20)
(1.11839 0.0405243 2.74915e-20)
(1.2539 0.0314324 -9.6573e-21)
(-0.0212487 0.0144792 3.11941e-20)
(-0.0135826 0.020229 3.38118e-20)
(0.0449952 0.017638 -2.03857e-21)
(0.15757 0.0122004 -1.07594e-20)
(0.326866 0.0096524 2.81814e-22)
(0.545831 0.0139082 6.85806e-22)
(0.788474 0.0257049 -5.88717e-20)
(1.01482 0.0375804 7.61258e-21)
(1.19279 0.0509355 7.37209e-20)
(1.30508 0.0435644 3.35745e-20)
(-0.0192236 0.0125954 -2.12026e-20)
(-0.00089688 0.0152212 -1.56165e-20)
(0.0752559 0.0117737 6.74833e-20)
(0.211105 0.00755417 1.74682e-21)
(0.405975 0.00876289 -2.84237e-20)
(0.64437 0.0186412 7.57529e-20)
(0.890033 0.035247 1.67096e-20)
(1.10124 0.0499566 1.08873e-21)
(1.25348 0.0628971 -3.23053e-20)
(1.34189 0.0563635 -4.22882e-20)
(-0.0160981 0.0103555 4.46257e-20)
(0.0150476 0.00985127 -1.23321e-20)
(0.110921 0.00625855 -7.42557e-21)
(0.2715 0.00449573 -2.81225e-20)
(0.490847 0.0108575 4.59533e-20)
(0.743139 0.0268893 -2.23695e-20)
(0.984081 0.0476195 -2.53299e-20)
(1.17507 0.0640045 -5.89363e-21)
(1.3012 0.0758069 -1.86278e-20)
(1.36806 0.0693175 2.03998e-20)
(-0.0117551 0.00784799 -1.63926e-20)
(0.0345012 0.00436345 -9.79401e-20)
(0.152131 0.00149007 1.01604e-20)
(0.338254 0.00353664 3.52409e-20)
(0.579542 0.0162319 2.51372e-20)
(0.83913 0.0383729 -8.38461e-20)
(1.06859 0.0622323 5.37237e-20)
(1.23638 0.0791813 -2.43362e-20)
(1.33761 0.0892501 3.68028e-20)
(1.38544 0.0823556 1.0181e-20)
(-0.00608299 0.00518241 -1.81113e-20)
(0.0576668 -0.000930922 3.46991e-20)
(0.198879 -0.00204485 4.55353e-20)
(0.410519 0.00520825 -3.26031e-20)
(0.669814 0.0250225 1.21507e-20)
(0.929796 0.0527026 -7.39397e-20)
(1.14252 0.0785495 -1.36956e-20)
(1.28594 0.0950742 1.15787e-20)
(1.36437 0.102971 -2.8028e-20)
(1.39618 0.0953488 -2.85262e-20)
(0.00102274 0.00248359 -2.35253e-20)
(0.0846813 -0.00567337 -8.07712e-21)
(0.250963 -0.00381355 -8.27898e-20)
(0.48709 0.00997092 -1.30282e-20)
(0.759335 0.0371813 -1.34723e-21)
(1.01324 0.0694423 4.44046e-21)
(1.20564 0.096117 7.54821e-21)
(1.32496 0.111387 -3.65398e-20)
(1.38321 0.116816 6.639e-22)
(1.40186 0.108325 1.96877e-20)
(0.00965489 -0.000111621 -6.1916e-21)
(0.115593 -0.00947532 2.86985e-20)
(0.307952 -0.00328448 4.0518e-20)
(0.566454 0.0181439 2.53969e-20)
(0.845938 0.0525071 -7.4828e-21)
(1.08825 0.08816 -6.25043e-21)
(1.25831 0.11457 6.16005e-20)
(1.35478 0.127921 8.27944e-21)
(1.39566 0.130718 2.75975e-20)
(1.40376 0.121297 -1.18945e-20)
(0.0198864 -0.00245564 5.91302e-20)
(0.150342 -0.0119336 3.82106e-20)
(0.369171 2.72797e-05 -3.88213e-20)
(0.646911 0.0298742 -7.75072e-21)
(0.927802 0.0706996 4.08202e-21)
(1.15424 0.10846 -1.47508e-20)
(1.30126 0.133628 -3.17233e-20)
(1.37678 0.144558 -5.19535e-21)
(1.40303 0.144659 3.7149e-22)
(1.40286 0.134311 1.29023e-20)
(0.0317617 -0.00439129 7.41252e-21)
(0.188745 -0.012645 -2.09073e-20)
(0.433713 0.00652043 4.95879e-20)
(0.726721 0.0451448 3.23241e-20)
(1.00355 0.0914119 1.03561e-21)
(1.2111 0.129996 2.28356e-20)
(1.33541 0.153088 3.33354e-21)
(1.39221 0.161233 -2.39906e-20)
(1.4064 0.158648 2.02661e-20)
(1.39984 0.1474 -2.35311e-24)
(0.0452891 -0.00575349 -4.89901e-20)
(0.230482 -0.0112219 -1.44467e-20)
(0.500485 0.0164793 -1.30365e-20)
(0.804254 0.0638074 -2.27368e-20)
(1.07225 0.114286 5.38892e-21)
(1.25912 0.152479 1.17348e-22)
(1.36176 0.172804 1.75605e-20)
(1.40221 0.177921 -2.85048e-21)
(1.40663 0.172709 -2.08972e-20)
(1.39522 0.160589 -1.94336e-20)
(0.0604334 -0.00637208 3.99569e-21)
(0.275101 -0.00730932 2.34742e-20)
(0.568276 0.0300604 1.1417e-20)
(0.878091 0.0856211 -3.5603e-20)
(1.13337 0.138976 -1.75737e-21)
(1.29876 0.175666 -1.52581e-20)
(1.3813 0.192679 3.90136e-22)
(1.40774 0.19462 7.09779e-21)
(1.40436 0.186864 -7.87902e-21)
(1.3893 0.173886 2.20005e-20)
(0.0771118 -0.00607636 9.42335e-21)
(0.322023 -0.00060293 -2.30418e-20)
(0.635831 0.0472937 -5.44598e-20)
(0.947083 0.110286 5.016e-20)
(1.18671 0.165156 -3.73133e-21)
(1.33065 0.199362 1.10214e-20)
(1.39495 0.212645 -1.52039e-21)
(1.40956 0.211334 1.05448e-20)
(1.40009 0.201128 -7.93258e-22)
(1.38232 0.187285 -1.70478e-20)
(0.0951914 -0.00470092 -1.92364e-20)
(0.370563 0.00913408 3.00595e-20)
(0.701926 0.0680944 2.48066e-20)
(1.01036 0.13747 -3.5825e-20)
(1.23232 0.192526 -5.94169e-21)
(1.35546 0.223403 2.25228e-21)
(1.4035 0.232654 2.26086e-20)
(1.40831 0.228066 1.12666e-21)
(1.39415 0.2155 4.38007e-21)
(1.3744 0.200765 -9.42673e-21)
(0.11449 -0.00209245 1.46e-20)
(0.419954 0.0220575 -1.31501e-20)
(0.765429 0.0922798 -1.124e-20)
(1.06733 0.166821 1.92325e-20)
(1.27041 0.220811 6.62004e-21)
(1.37386 0.247654 4.99705e-21)
(1.40766 0.252667 -2.30533e-20)
(1.40447 0.244812 -7.89027e-21)
(1.38677 0.229968 -7.04438e-21)
(1.36562 0.214288 3.10073e-21)
(0.13478 0.00188301 -7.3117e-21)
(0.469383 0.0382337 -1.70023e-22)
(0.825345 0.119588 2.12778e-20)
(1.1176 0.197982 -7.78617e-21)
(1.30129 0.249756 -3.4451e-21)
(1.38648 0.271995 -2.26187e-21)
(1.40801 0.272643 5.58789e-21)
(1.39841 0.261554 9.62551e-21)
(1.37811 0.244499 -3.114e-22)
(1.35601 0.227805 3.50416e-21)
(0.155792 0.00733307 5.15773e-21)
(0.518019 0.0576367 -1.44865e-21)
(0.880836 0.149697 -3.81621e-21)
(1.161 0.230598 -3.45486e-21)
(1.32537 0.279126 3.10429e-21)
(1.39391 0.296314 2.41533e-21)
(1.40502 0.292538 -2.22367e-21)
(1.3904 0.278261 8.03086e-22)
(1.36828 0.259047 1.12716e-21)
(1.34558 0.241257 -1.49562e-21)
(0.177225 0.014333 2.77996e-21)
(0.565054 0.0801508 7.90968e-22)
(0.931231 0.182238 -4.7515e-21)
(1.19747 0.264312 -3.78533e-21)
(1.34305 0.308697 3.93779e-21)
(1.39667 0.320505 7.70267e-22)
(1.39909 0.312295 -1.78629e-21)
(1.38062 0.294884 1.67686e-21)
(1.35732 0.273548 9.34524e-22)
(1.33435 0.254576 -1.0725e-21)
(0.198752 0.0229208 -1.08471e-21)
(0.609721 0.105576 2.22101e-21)
(0.976019 0.216809 1.46637e-20)
(1.2271 0.298777 -6.51716e-21)
(1.35476 0.338257 -3.17468e-21)
(1.39521 0.344459 -3.57279e-21)
(1.39052 0.331848 7.3122e-21)
(1.36922 0.311357 4.90446e-21)
(1.34527 0.287922 3.90851e-21)
(1.32231 0.267687 2.11966e-21)
(0.220033 0.0330945 2.23482e-20)
(0.651325 0.133639 -1.23071e-20)
(1.01484 0.252987 -1.39794e-20)
(1.25003 0.333651 1.89736e-20)
(1.36091 0.367601 9.96802e-21)
(1.38991 0.368062 -6.63226e-22)
(1.37954 0.351115 -1.22467e-20)
(1.35629 0.3276 -8.80013e-21)
(1.33215 0.302074 -9.17752e-21)
(1.30947 0.280511 5.46344e-21)
(0.240724 0.044811 -3.02514e-20)
(0.689258 0.164003 2.84886e-20)
(1.04746 0.290336 3.27693e-20)
(1.26649 0.3686 -3.22238e-20)
(1.36189 0.396527 -1.11118e-20)
(1.38112 0.391195 7.1272e-21)
(1.36634 0.370004 1.28937e-20)
(1.34189 0.34352 2.03679e-21)
(1.31794 0.315899 -3.66839e-22)
(1.29576 0.292957 -7.47328e-21)
(0.260483 0.0579864 -4.35586e-21)
(0.723004 0.196277 -4.01258e-20)
(1.07376 0.32841 -4.29284e-20)
(1.27673 0.403297 4.80433e-20)
(1.35809 0.424833 -5.45459e-21)
(1.36913 0.413731 1.00085e-20)
(1.35108 0.388414 1.96541e-21)
(1.32607 0.359022 -5.51594e-21)
(1.30263 0.329305 2.96605e-21)
(1.28105 0.304938 -4.42046e-22)
(0.278987 0.0724986 8.86164e-21)
(0.752154 0.230032 2.49021e-20)
(1.09374 0.366764 1.40798e-20)
(1.28104 0.437428 -1.1069e-20)
(1.34984 0.452323 -1.72207e-20)
(1.35419 0.435534 -1.59777e-20)
(1.33389 0.406231 -3.2294e-21)
(1.30887 0.37401 8.6376e-21)
(1.28622 0.342241 -1.82533e-21)
(1.26522 0.316408 4.1527e-21)
(0.295932 0.0881903 -3.35971e-20)
(0.776399 0.264812 -3.13412e-20)
(1.10745 0.404956 -4.98291e-21)
(1.27973 0.470684 -5.61813e-21)
(1.33748 0.478797 -1.27573e-20)
(1.33651 0.456463 7.77767e-21)
(1.31485 0.42333 -1.38247e-21)
(1.29032 0.388364 -7.53886e-21)
(1.26876 0.354689 6.85457e-21)
(1.24833 0.327338 -1.0056e-20)
(0.311048 0.104872 7.92422e-21)
(0.795537 0.300147 2.65906e-20)
(1.11503 0.442556 2.31325e-20)
(1.27312 0.50277 2.51259e-20)
(1.3213 0.504061 4.3058e-22)
(1.3163 0.476373 2.20545e-20)
(1.29404 0.43958 1.52239e-21)
(1.27046 0.401937 -2.60933e-20)
(1.25024 0.366534 1.875e-20)
(1.23075 0.33752 6.87768e-21)
(0.324101 0.122329 2.17986e-20)
(0.809453 0.335564 4.88505e-20)
(1.11668 0.479144 -6.4374e-21)
(1.26154 0.533399 -3.17272e-20)
(1.30161 0.527922 1.42759e-20)
(1.29371 0.495117 -1.48705e-20)
(1.27157 0.454845 -2.00501e-20)
(1.24946 0.414643 -1.9081e-21)
(1.23062 0.377562 -1.5761e-20)
(1.21253 0.346996 6.13654e-21)
(0.334898 0.140323 1.03312e-20)
(0.818118 0.370592 7.78182e-21)
(1.11262 0.514319 6.1218e-20)
(1.24532 0.5623 1.15045e-20)
(1.27866 0.550199 -1.01057e-20)
(1.2689 0.512536 -5.13938e-21)
(1.24767 0.468969 3.10659e-20)
(1.22729 0.426365 2.56763e-20)
(1.20992 0.387693 1.28255e-20)
(1.19357 0.355572 -1.78752e-21)
(0.34329 0.158603 2.21815e-21)
(0.82158 0.404774 -5.00662e-20)
(1.10316 0.547697 -7.2156e-20)
(1.22482 0.589216 2.34976e-21)
(1.25273 0.570716 1.42887e-20)
(1.24214 0.528456 -1.99135e-20)
(1.22235 0.48182 -4.6013e-20)
(1.20391 0.437002 -1.37889e-20)
(1.1883 0.396804 -8.62784e-22)
(1.17387 0.36318 7.0472e-21)
(0.349172 0.176913 -1.80189e-20)
(0.819958 0.437671 4.56877e-20)
(1.08863 0.578927 4.35637e-20)
(1.20038 0.613894 -4.05484e-20)
(1.2241 0.589265 6.14164e-21)
(1.21358 0.542752 4.91102e-20)
(1.19566 0.493261 -1.15075e-20)
(1.17947 0.446422 9.46833e-21)
(1.1658 0.404798 -4.91004e-21)
(1.15348 0.369732 -6.53537e-21)
(0.352484 0.194989 -4.08709e-20)
(0.813454 0.468859 -7.19361e-20)
(1.06944 0.607707 -1.41214e-20)
(1.17225 0.636088 2.32817e-20)
(1.19299 0.605672 2.33695e-20)
(1.18333 0.555247 -4.94605e-20)
(1.16775 0.503181 2.74402e-20)
(1.15404 0.454517 -1.5219e-20)
(1.14249 0.411574 1.26767e-20)
(1.13246 0.375162 1.87723e-22)
(0.35322 0.212569 3.11404e-20)
(0.802353 0.497923 1.98775e-21)
(1.04594 0.633773 -7.01853e-21)
(1.14071 0.655583 -2.94612e-20)
(1.15968 0.619738 1.98723e-20)
(1.1516 0.5658 3.7123e-21)
(1.13874 0.51145 -1.67229e-20)
(1.12774 0.461178 2.25209e-21)
(1.11846 0.417034 -3.84085e-21)
(1.11092 0.379392 2.75126e-21)
(0.351439 0.229402 -8.72857e-21)
(0.787006 0.524525 -1.25496e-20)
(1.01817 0.656711 3.12886e-20)
(1.10626 0.672283 1.45667e-20)
(1.12449 0.631293 -2.00319e-20)
(1.11857 0.574274 3.03054e-20)
(1.10878 0.517951 1.76824e-21)
(1.10067 0.466307 1.69039e-21)
(1.0938 0.421073 -2.33311e-21)
(1.08894 0.382323 -1.46015e-22)
(0.347248 0.245227 5.70609e-20)
(0.767711 0.548563 4.4004e-20)
(0.986352 0.676144 -2.50375e-21)
(1.06935 0.685866 -7.28249e-21)
(1.08766 0.640267 -8.38275e-21)
(1.08442 0.580559 -4.18312e-21)
(1.078 0.52258 1.38354e-21)
(1.07294 0.469818 2.3038e-21)
(1.06859 0.423596 2.757e-21)
(1.06659 0.383853 -9.35363e-22)
(0.340732 0.259663 5.56555e-21)
(0.744532 0.569671 8.1736e-21)
(0.951418 0.692277 -4.2589e-20)
(1.03035 0.696084 1.95034e-20)
(1.04945 0.646516 7.18007e-21)
(1.04935 0.584549 -1.63393e-20)
(1.04655 0.525243 4.88111e-21)
(1.04465 0.471632 1.03351e-21)
(1.04297 0.424533 -2.27457e-21)
(1.04411 0.383935 1.64652e-21)
(0.331867 0.272462 -2.16113e-20)
(0.71768 0.58723 -1.64669e-20)
(0.913885 0.70481 1.48723e-20)
(0.989542 0.702962 5.02164e-21)
(1.01012 0.64994 -7.1538e-21)
(1.01356 0.58615 7.7484e-21)
(1.01456 0.525849 1.22189e-21)
(1.01592 0.471655 -2.33933e-21)
(1.0172 0.42381 1.23982e-20)
(1.02219 0.382614 5.87257e-21)
(0.320907 0.283436 -1.74086e-20)
(0.687793 0.601073 4.6853e-20)
(0.874024 0.713504 -3.09568e-20)
(0.947261 0.706408 -3.53044e-21)
(0.969923 0.650452 -6.96848e-21)
(0.977219 0.585279 3.11312e-21)
(0.98215 0.524313 -3.69361e-21)
(0.986838 0.469748 2.29179e-21)
(0.991677 0.421218 8.68858e-22)
(1.00157 0.379897 -2.1743e-21)
(0.308112 0.292565 -5.01623e-22)
(0.655308 0.611087 -1.37223e-20)
(0.832249 0.718167 9.21633e-21)
(0.903853 0.706338 -6.17399e-21)
(0.929129 0.647994 7.17542e-22)
(0.940526 0.581888 3.18216e-21)
(0.949437 0.520593 9.00947e-21)
(0.957623 0.46582 -7.8814e-21)
(0.966791 0.416382 -1.57974e-20)
(0.9815 0.375036 7.69125e-21)
(0.293616 0.299647 1.90287e-21)
(0.620684 0.617148 -5.73567e-22)
(0.788984 0.718703 5.33914e-22)
(0.859667 0.702688 -2.63337e-22)
(0.888003 0.642522 -5.35371e-21)
(0.903673 0.575947 -1.30926e-20)
(0.916621 0.514689 -3.76251e-21)
(0.928564 0.460005 -1.99849e-21)
(0.942523 0.40956 2.32244e-20)
(0.958897 0.364415 -4.43557e-21)
(0.277646 0.304534 -6.98386e-21)
(0.584362 0.619152 -5.27126e-21)
(0.744663 0.715063 2.28813e-21)
(0.815055 0.69542 1.3379e-21)
(0.84681 0.63401 -6.70077e-21)
(0.866883 0.567427 2.71339e-20)
(0.883968 0.506565 -2.05431e-20)
(0.899884 0.452366 2.52477e-20)
(0.917733 0.402647 -1.77603e-20)
(0.933889 0.358983 -2.42984e-20)
(0.260455 0.30712 2.22315e-21)
(0.546777 0.617027 -3.02464e-21)
(0.69971 0.707231 1.34292e-21)
(0.770363 0.684525 1.00259e-20)
(0.805818 0.622451 -5.17984e-21)
(0.830383 0.556312 7.83893e-21)
(0.851685 0.496169 1.18764e-20)
(0.871593 0.442623 -6.32914e-21)
(0.892794 0.393407 -1.81852e-20)
(0.910005 0.349941 2.49555e-20)
(0.242303 0.307324 6.69584e-21)
(0.508362 0.610739 8.44258e-21)
(0.654547 0.695223 -9.50031e-21)
(0.72593 0.670024 -8.34365e-21)
(0.765294 0.607859 3.49606e-20)
(0.794395 0.542616 -3.65575e-20)
(0.819925 0.483554 4.51908e-20)
(0.843702 0.431025 -1.13002e-20)
(0.867929 0.38291 1.22166e-20)
(0.886849 0.340655 2.35288e-20)
(0.223452 0.305099 -1.7889e-21)
(0.469547 0.600294 -9.31694e-21)
(0.609581 0.679084 -7.55543e-21)
(0.682092 0.651961 -3.63605e-21)
(0.725503 0.590268 5.4907e-21)
(0.759142 0.526361 -1.02805e-20)
(0.788859 0.468723 -1.34368e-20)
(0.816378 0.417491 -3.05191e-20)
(0.843507 0.370715 3.05027e-20)
(0.86456 0.329868 -9.7028e-21)
(0.204169 0.300423 2.15632e-20)
(0.430756 0.585734 -3.22876e-21)
(0.565213 0.658888 -1.07657e-20)
(0.639171 0.630407 1.31289e-20)
(0.686706 0.569734 -2.35505e-20)
(0.724834 0.507594 6.52785e-20)
(0.758656 0.451727 -3.51263e-20)
(0.789787 0.402114 3.21736e-20)
(0.819753 0.356998 -5.91572e-20)
(0.843167 0.31775 -1.58434e-20)
(0.184718 0.293304 -5.62161e-21)
(0.392399 0.567137 2.31191e-20)
(0.521825 0.634742 5.08311e-21)
(0.597482 0.605455 -1.26128e-20)
(0.649154 0.546334 -2.20189e-20)
(0.691679 0.486377 -3.9694e-22)
(0.729488 0.432618 1.17256e-20)
(0.764097 0.384923 -2.92176e-20)
(0.796829 0.341722 1.42697e-20)
(0.822708 0.304219 1.8638e-21)
(0.165358 0.283776 -3.92884e-20)
(0.354878 0.544616 -9.4738e-21)
(0.479788 0.606777 -2.8028e-21)
(0.557325 0.577224 3.3203e-20)
(0.61309 0.520164 -3.12609e-20)
(0.65988 0.46279 -7.94665e-21)
(0.701528 0.411466 -5.01343e-21)
(0.73947 0.365979 9.10095e-21)
(0.774877 0.324933 -1.18228e-20)
(0.803252 0.289311 -1.83926e-20)
(0.146345 0.271899 3.58838e-20)
(0.318573 0.518318 -2.06661e-20)
(0.439453 0.575153 8.58563e-22)
(0.518989 0.545854 -5.07069e-20)
(0.578747 0.491339 5.54111e-20)
(0.629628 0.436929 -1.76128e-20)
(0.674942 0.388354 1.05621e-20)
(0.716054 0.345349 9.26696e-21)
(0.754022 0.306673 2.69172e-20)
(0.78487 0.273074 -1.11849e-20)
(0.127921 0.25776 -1.4501e-20)
(0.283849 0.48842 4.30998e-20)
(0.401152 0.540059 2.44969e-20)
(0.482743 0.511506 4.06905e-20)
(0.546346 0.459995 -9.37306e-21)
(0.601111 0.40891 3.81103e-21)
(0.649889 0.363379 3.08818e-20)
(0.693988 0.323113 6.97499e-21)
(0.73438 0.287004 6.72705e-22)
(0.767639 0.255574 -1.34463e-20)
(0.11032 0.241469 -3.4675e-20)
(0.251048 0.455129 -2.45437e-21)
(0.365198 0.501703 -1.45864e-20)
(0.448842 0.474364 -6.6032e-20)
(0.516095 0.426283 -6.41215e-20)
(0.574503 0.378859 1.0661e-20)
(0.62652 0.336652 -2.64465e-20)
(0.673404 0.299361 1.70503e-20)
(0.716061 0.266004 9.25654e-21)
(0.751636 0.236892 1.91826e-20)
(0.0937606 0.223156 5.17515e-20)
(0.220486 0.418679 -4.24178e-20)
(0.331878 0.460322 -2.17033e-20)
(0.417524 0.434627 3.8234e-20)
(0.488188 0.390371 4.38421e-20)
(0.549968 0.34692 -1.46827e-20)
(0.604975 0.308295 -1.95321e-21)
(0.654422 0.274199 -5.28999e-20)
(0.699169 0.243762 -2.99329e-20)
(0.736931 0.217117 1.1462e-20)
(0.0784466 0.202973 -2.95616e-20)
(0.192457 0.379329 1.24277e-20)
(0.301456 0.416169 4.61096e-20)
(0.389004 0.392517 -2.09399e-20)
(0.462803 0.352445 1.74597e-21)
(0.527657 0.313251 5.90609e-20)
(0.585382 0.278443 2.65958e-21)
(0.637155 0.247741 5.08793e-20)
(0.683801 0.220378 2.12267e-20)
(0.723595 0.196345 -3.37984e-20)
(0.0645634 0.181093 4.15288e-20)
(0.167223 0.337359 4.69179e-21)
(0.274172 0.369519 3.06297e-21)
(0.363478 0.348266 4.24348e-20)
(0.440101 0.312702 -5.59778e-21)
(0.507707 0.27802 -3.71349e-20)
(0.567861 0.247242 1.82207e-20)
(0.621705 0.220111 -2.9176e-20)
(0.670045 0.195961 -1.21687e-20)
(0.711688 0.174679 1.23181e-20)
(0.0522772 0.157701 -2.58697e-20)
(0.145022 0.293072 -4.99511e-20)
(0.250237 0.320663 1.16294e-20)
(0.341121 0.302127 -2.27507e-20)
(0.420228 0.271353 -1.36879e-20)
(0.490239 0.241407 3.33367e-20)
(0.552515 0.214846 -8.06331e-21)
(0.608165 0.191442 7.40625e-21)
(0.657983 0.17063 -9.05535e-21)
(0.701268 0.152227 1.80236e-20)
(0.0417332 0.133001 9.48747e-21)
(0.126056 0.246788 3.37776e-20)
(0.229835 0.269909 -4.70827e-20)
(0.322084 0.25436 2.22288e-20)
(0.403307 0.22862 -1.01539e-20)
(0.475362 0.203603 -2.85976e-20)
(0.539437 0.181419 2.33946e-20)
(0.596614 0.161877 4.88365e-21)
(0.647685 0.144508 -7.50571e-22)
(0.692384 0.129101 -2.09554e-20)
(0.0330551 0.107208 3.14027e-21)
(0.110499 0.198841 1.09874e-20)
(0.213122 0.217576 4.27446e-20)
(0.306494 0.20524 -8.232e-21)
(0.389446 0.184734 -6.49158e-21)
(0.463164 0.164807 2.38554e-21)
(0.528704 0.147133 1.10239e-21)
(0.587123 0.131563 8.74319e-21)
(0.639213 0.117726 -1.15046e-20)
(0.685077 0.105416 -7.31387e-21)
(0.026343 0.0805477 -7.80657e-21)
(0.0984907 0.149578 -1.33649e-20)
(0.200222 0.163994 -3.33773e-20)
(0.294455 0.155048 1.68097e-20)
(0.37873 0.139936 1.36968e-20)
(0.45372 0.125223 5.83157e-22)
(0.52038 0.112164 -2.29145e-20)
(0.579746 0.100653 -1.01937e-20)
(0.632615 0.0904193 8.05724e-21)
(0.67938 0.0812863 8.63751e-21)
(0.0216735 0.0532531 1.3685e-21)
(0.0901363 0.0993563 -2.82412e-21)
(0.191231 0.109502 6.3292e-21)
(0.286045 0.104075 -4.28606e-21)
(0.371225 0.0944696 -3.80353e-21)
(0.447086 0.0850622 -2.57602e-21)
(0.514512 0.0766949 4.72505e-21)
(0.574529 0.069305 1.80073e-20)
(0.627931 0.0627224 2.60352e-21)
(0.675316 0.0568186 -4.6155e-21)
(0.0190985 0.0255646 1.69008e-21)
(0.0855078 0.0485406 -4.6493e-21)
(0.186213 0.0544447 -5.27168e-21)
(0.281317 0.0526157 -3.65676e-21)
(0.366974 0.0485865 3.4812e-21)
(0.443298 0.0445399 1.57037e-21)
(0.511133 0.0409101 -1.5638e-21)
(0.571497 0.0376799 -7.12854e-21)
(0.625181 0.0347786 2.34682e-21)
(0.672892 0.0321419 -2.19389e-21)
(0.0186451 -0.00227449 -1.69927e-21)
(0.0846424 -0.00250094 4.67296e-21)
(0.185201 -0.000828691 5.29388e-21)
(0.280299 0.00096689 -5.06397e-21)
(0.366 0.00253908 4.4565e-21)
(0.442376 0.00387303 2.23014e-21)
(0.510261 0.00499811 -3.55844e-21)
(0.570668 0.00594421 -4.13656e-21)
(0.624383 0.00674801 6.10336e-22)
(0.67212 0.00745397 -1.71984e-21)
(0.0203152 -0.0300193 1.86232e-21)
(0.087542 -0.0533981 -5.56633e-21)
(0.188197 -0.0559686 1.25018e-20)
(0.282992 -0.0505719 -1.09663e-20)
(0.368306 -0.0434189 -5.13173e-22)
(0.444323 -0.0367208 -7.27141e-21)
(0.511897 -0.0308552 1.18128e-20)
(0.572048 -0.0257455 1.60549e-20)
(0.625574 -0.0212513 2.87163e-21)
(0.673127 -0.0172444 -6.17773e-21)
(0.0240855 -0.0574263 -1.61203e-21)
(0.094174 -0.103782 -1.18305e-20)
(0.195171 -0.110626 -2.7458e-20)
(0.289372 -0.101703 2.3728e-20)
(0.373869 -0.0890344 4.89568e-21)
(0.449119 -0.0770247 4.3205e-21)
(0.516026 -0.0664633 -2.12884e-20)
(0.575616 -0.0572298 -1.25306e-20)
(0.628687 -0.0490878 -2.77952e-21)
(0.675721 -0.0418789 1.9088e-20)
(0.0299078 -0.084255 -5.68931e-21)
(0.104471 -0.153289 7.11139e-21)
(0.206064 -0.164457 4.98968e-20)
(0.299388 -0.15213 -4.46304e-21)
(0.38265 -0.134057 -1.27689e-20)
(0.456731 -0.116823 9.16613e-21)
(0.522616 -0.101639 6.02412e-22)
(0.581346 -0.088341 3.22784e-21)
(0.633713 -0.0765934 -7.05017e-21)
(0.679944 -0.0662047 -1.86288e-20)
(0.0377093 -0.110271 -3.85794e-21)
(0.118331 -0.201559 2.09111e-20)
(0.220782 -0.21712 -5.03042e-20)
(0.312966 -0.201565 2.18053e-20)
(0.394585 -0.17824 2.01913e-22)
(0.467104 -0.155905 -2.75482e-20)
(0.531623 -0.1362 1.21414e-20)
(0.5892 -0.118922 -1.11534e-21)
(0.640624 -0.103637 4.60729e-21)
(0.685784 -0.0901399 -1.39948e-21)
(0.0473935 -0.135247 -4.41857e-20)
(0.135618 -0.248246 -5.2694e-20)
(0.239204 -0.268285 1.37527e-20)
(0.330005 -0.249722 -2.49621e-20)
(0.40959 -0.221344 -7.07796e-21)
(0.480169 -0.194063 1.04943e-20)
(0.542985 -0.169968 3.90429e-21)
(0.599123 -0.14882 1.44665e-20)
(0.64937 -0.130087 -3.11633e-21)
(0.69321 -0.113583 1.67048e-20)
(0.0588407 -0.158969 4.22728e-20)
(0.156164 -0.293013 2.70952e-20)
(0.261179 -0.317632 -2.05641e-20)
(0.350379 -0.296329 3.45147e-20)
(0.427563 -0.263137 -2.9668e-21)
(0.495836 -0.2311 -3.71557e-20)
(0.556626 -0.202773 6.51999e-21)
(0.611048 -0.177886 -3.93315e-20)
(0.659893 -0.15581 1.51649e-21)
(0.70218 -0.136417 1.42582e-20)
(0.0719089 -0.18123 -3.15887e-20)
(0.179769 -0.33554 5.64321e-20)
(0.286526 -0.364851 2.20462e-20)
(0.373942 -0.341122 -2.71698e-20)
(0.448381 -0.303395 2.00008e-22)
(0.514001 -0.266824 6.85328e-20)
(0.572458 -0.234449 3.13057e-21)
(0.624895 -0.205978 3.03155e-20)
(0.672121 -0.180682 3.68626e-20)
(0.712646 -0.158527 -2.06356e-20)
(0.0864357 -0.201844 1.77196e-20)
(0.206202 -0.375523 -8.45464e-21)
(0.315037 -0.409651 -2.00537e-20)
(0.400521 -0.383849 1.5114e-20)
(0.471902 -0.341907 5.76978e-20)
(0.534545 -0.301053 -2.01991e-20)
(0.590376 -0.264841 -3.27741e-21)
(0.640575 -0.232961 -4.38344e-20)
(0.685978 -0.204583 -5.41111e-20)
(0.724552 -0.179807 2.36381e-20)
(0.102239 -0.220636 -2.36922e-20)
(0.235203 -0.412679 -2.07867e-20)
(0.346476 -0.451755 3.44816e-21)