/*--------------------------------*- C++ -*----------------------------------*\
  =========                 |
  \\      /  F ield         | OpenFOAM: The Open Source CFD Toolbox
   \\    /   O peration     | Website:  https://openfoam.org
    \\  /    A nd           | Version:  7
     \\/     M anipulation  |
\*---------------------------------------------------------------------------*/
FoamFile
{
    version     2.0;
    format      ascii;
    class       volScalarField;
    location    "45";
    object      p;
}
// * * * * * * * * * * * * * * * * * * * * * * * * * * * * * * * * * * * * * //

dimensions      [0 2 -2 0 0 0 0];

internalField   nonuniform List<scalar> 
8500
(
-0.251683
-0.253638
-0.254555
-0.255294
-0.255923
-0.256467
-0.25695
-0.257386
-0.257749
-0.258094
-0.251877
-0.253811
-0.254715
-0.255441
-0.256058
-0.256587
-0.257054
-0.257473
-0.257817
-0.258129
-0.252261
-0.254154
-0.255033
-0.255734
-0.256323
-0.256824
-0.257259
-0.257644
-0.257946
-0.258191
-0.25283
-0.254662
-0.255504
-0.256166
-0.256715
-0.257172
-0.257557
-0.257888
-0.258129
-0.25826
-0.253576
-0.25533
-0.256123
-0.256732
-0.257225
-0.257623
-0.257939
-0.258194
-0.258352
-0.258311
-0.25449
-0.25615
-0.25688
-0.257424
-0.257846
-0.258166
-0.258393
-0.258546
-0.258602
-0.258307
-0.255562
-0.257112
-0.257769
-0.258232
-0.258566
-0.258791
-0.258906
-0.258929
-0.258868
-0.258205
-0.25678
-0.258209
-0.258779
-0.259147
-0.259377
-0.259489
-0.259469
-0.259326
-0.259141
-0.257945
-0.258135
-0.259433
-0.259904
-0.26016
-0.260269
-0.260249
-0.260071
-0.259723
-0.259422
-0.257434
-0.25962
-0.260776
-0.261134
-0.261264
-0.261234
-0.261065
-0.260709
-0.260111
-0.25974
-0.256589
-0.261226
-0.262232
-0.262464
-0.26245
-0.262264
-0.26193
-0.261381
-0.260483
-0.260116
-0.255698
-0.262952
-0.263798
-0.263889
-0.263713
-0.263354
-0.26284
-0.262086
-0.260838
-0.260237
-0.254801
-0.264798
-0.265474
-0.265406
-0.265049
-0.264497
-0.263789
-0.262828
-0.261344
-0.260299
-0.253599
-0.266768
-0.267264
-0.267017
-0.266454
-0.26569
-0.264773
-0.263586
-0.261873
-0.260461
-0.252137
-0.268872
-0.269173
-0.268724
-0.26793
-0.26693
-0.265788
-0.264368
-0.262427
-0.26068
-0.250552
-0.271125
-0.271214
-0.270537
-0.26948
-0.268214
-0.266826
-0.265162
-0.26303
-0.260871
-0.249043
-0.273551
-0.273406
-0.272466
-0.271113
-0.269546
-0.267883
-0.265949
-0.263695
-0.260885
-0.247778
-0.27618
-0.27577
-0.274532
-0.272843
-0.270938
-0.268966
-0.266718
-0.264439
-0.260497
-0.246662
-0.279048
-0.278331
-0.276766
-0.274696
-0.272411
-0.270093
-0.26749
-0.265313
-0.259646
-0.245995
-0.282206
-0.281131
-0.279196
-0.276703
-0.273998
-0.271297
-0.268305
-0.266286
-0.258847
-0.249668
-0.285703
-0.284212
-0.281863
-0.278907
-0.275743
-0.272623
-0.26921
-0.267104
-0.258651
-0.263719
-0.289594
-0.287626
-0.284814
-0.281358
-0.277701
-0.274123
-0.270259
-0.267662
-0.259137
-0.262936
-0.293942
-0.291419
-0.2881
-0.28411
-0.279932
-0.27585
-0.271494
-0.268069
-0.259646
-0.260159
-0.298807
-0.295642
-0.291772
-0.287219
-0.282492
-0.277854
-0.272923
-0.268494
-0.259926
-0.257404
-0.304249
-0.300348
-0.295885
-0.290741
-0.285432
-0.280168
-0.274539
-0.268974
-0.259918
-0.254529
-0.310318
-0.305583
-0.300489
-0.294724
-0.28879
-0.282809
-0.27633
-0.26948
-0.259558
-0.251671
-0.317059
-0.311391
-0.30563
-0.299213
-0.292587
-0.285772
-0.278259
-0.269948
-0.258833
-0.248762
-0.324503
-0.317808
-0.311349
-0.304238
-0.296829
-0.289031
-0.280264
-0.270292
-0.257736
-0.245741
-0.332668
-0.32486
-0.317677
-0.309815
-0.301502
-0.292533
-0.282253
-0.270418
-0.256257
-0.242531
-0.341556
-0.332563
-0.324626
-0.315938
-0.306568
-0.296189
-0.28411
-0.270237
-0.254382
-0.239071
-0.351146
-0.34091
-0.332191
-0.322572
-0.311953
-0.299874
-0.285711
-0.269668
-0.252091
-0.2353
-0.361392
-0.349876
-0.340335
-0.329655
-0.317544
-0.303434
-0.286931
-0.268639
-0.249356
-0.231167
-0.372218
-0.359405
-0.34899
-0.337084
-0.323185
-0.306699
-0.287653
-0.267081
-0.246139
-0.226621
-0.383514
-0.369408
-0.358047
-0.344714
-0.328677
-0.309492
-0.287762
-0.26493
-0.242398
-0.221611
-0.395134
-0.379758
-0.367359
-0.352351
-0.333797
-0.311639
-0.287152
-0.262121
-0.238083
-0.216086
-0.406892
-0.390284
-0.376735
-0.359756
-0.338309
-0.312975
-0.285724
-0.258588
-0.23314
-0.209998
-0.418562
-0.400777
-0.385937
-0.366653
-0.341974
-0.313341
-0.28338
-0.254263
-0.22751
-0.203296
-0.429881
-0.410985
-0.394688
-0.372745
-0.344559
-0.312591
-0.280027
-0.249077
-0.221134
-0.195934
-0.440552
-0.420623
-0.402676
-0.377726
-0.345845
-0.310587
-0.275574
-0.242961
-0.213953
-0.187869
-0.450251
-0.429374
-0.40956
-0.381296
-0.34563
-0.307204
-0.269937
-0.235846
-0.20591
-0.179064
-0.458631
-0.436898
-0.414991
-0.383167
-0.343729
-0.302327
-0.263034
-0.227668
-0.196952
-0.169484
-0.465337
-0.442844
-0.418619
-0.38308
-0.339981
-0.295853
-0.254792
-0.218367
-0.187034
-0.159102
-0.470015
-0.446855
-0.420112
-0.380801
-0.334244
-0.287692
-0.245142
-0.207887
-0.176119
-0.147906
-0.472318
-0.448583
-0.419168
-0.376131
-0.326402
-0.277768
-0.234026
-0.196179
-0.164172
-0.13588
-0.471921
-0.447702
-0.415522
-0.368908
-0.316365
-0.266023
-0.221396
-0.183198
-0.151149
-0.122955
-0.468531
-0.443914
-0.408953
-0.359008
-0.304067
-0.252417
-0.207226
-0.168923
-0.137001
-0.108953
-0.461891
-0.436963
-0.399291
-0.346347
-0.289471
-0.23693
-0.191503
-0.15335
-0.121721
-0.0936835
-0.45179
-0.426646
-0.386414
-0.330879
-0.272564
-0.219556
-0.174215
-0.136485
-0.105377
-0.077288
-0.438071
-0.412817
-0.370246
-0.312595
-0.253353
-0.200291
-0.155357
-0.118362
-0.0879749
-0.0604392
-0.42063
-0.395385
-0.350766
-0.291522
-0.23187
-0.179149
-0.134992
-0.0991216
-0.0694293
-0.0430184
-0.399421
-0.374317
-0.327996
-0.267731
-0.208177
-0.156201
-0.113339
-0.0786221
-0.0499014
-0.0248939
-0.374455
-0.34964
-0.302012
-0.241326
-0.182383
-0.131664
-0.0902378
-0.0569797
-0.0294865
-0.00606883
-0.345799
-0.321447
-0.272978
-0.212398
-0.154582
-0.105517
-0.0658399
-0.0342833
-0.00825965
0.0133774
-0.313575
-0.289914
-0.241152
-0.180949
-0.124883
-0.0778669
-0.0402515
-0.0106285
0.0137033
0.0333396
-0.277966
-0.255275
-0.206661
-0.147146
-0.0934213
-0.0488513
-0.0135935
0.0138855
0.0363251
0.0537331
-0.239205
-0.217761
-0.168951
-0.111775
-0.0604571
-0.0186265
0.0140054
0.0391564
0.0595248
0.0744666
-0.19751
-0.177522
-0.128969
-0.0746311
-0.0261856
0.0126359
0.0424162
0.0650894
0.0831652
0.0952018
-0.153134
-0.134511
-0.087501
-0.0359736
0.00920885
0.0447647
0.0715267
0.0916068
0.106974
0.115127
-0.106498
-0.089411
-0.0445419
0.00390382
0.0455165
0.0775904
0.101233
0.118613
0.130628
0.133684
-0.0580287
-0.042565
-0.000291821
0.0447155
0.0825043
0.11093
0.131378
0.145878
0.154039
0.152608
-0.00804538
0.00558604
0.0449383
0.0861761
0.11993
0.144578
0.161715
0.173002
0.177175
0.176712
0.0430316
0.0546326
0.0907963
0.127992
0.157545
0.178311
0.191981
0.199851
0.200885
0.20097
0.0947633
0.104171
0.136917
0.169862
0.195094
0.211902
0.222004
0.226491
0.224855
0.224003
0.146707
0.153791
0.182935
0.211482
0.232319
0.245121
0.251609
0.252798
0.248658
0.246124
0.198417
0.203083
0.228484
0.252544
0.26896
0.277749
0.280629
0.278596
0.271959
0.267325
0.249451
0.251636
0.273207
0.292748
0.304759
0.309568
0.308884
0.303708
0.294571
0.287637
0.299372
0.299046
0.31675
0.331795
0.339467
0.340367
0.336195
0.32796
0.316342
0.307019
0.347751
0.344919
0.358774
0.369399
0.372839
0.369939
0.362384
0.351192
0.337146
0.325411
0.394176
0.388876
0.39895
0.405283
0.404641
0.398084
0.38728
0.373255
0.356862
0.342739
0.438252
0.430554
0.436967
0.439181
0.434648
0.424612
0.410721
0.39401
0.375377
0.358929
0.479603
0.469609
0.472528
0.470846
0.462648
0.449343
0.432554
0.413326
0.392584
0.373904
0.517879
0.505722
0.50536
0.500044
0.488445
0.472108
0.452635
0.431081
0.408381
0.387594
0.552758
0.538599
0.535209
0.526562
0.511856
0.492753
0.470832
0.447163
0.422674
0.399932
0.583944
0.567971
0.561846
0.550206
0.532715
0.511136
0.487027
0.461468
0.435377
0.410858
0.611177
0.593602
0.585068
0.570801
0.550876
0.527133
0.501112
0.473906
0.446412
0.42032
0.634227
0.615284
0.604696
0.588199
0.56621
0.540634
0.512995
0.484396
0.455712
0.428273
0.652902
0.632842
0.620581
0.602272
0.578609
0.551547
0.522596
0.492871
0.463222
0.434679
0.667046
0.646135
0.632602
0.612917
0.587986
0.559798
0.529853
0.499275
0.468894
0.439509
0.676542
0.655057
0.640667
0.620057
0.594274
0.56533
0.534719
0.503568
0.472695
0.442741
0.681309
0.659536
0.644715
0.62364
0.597429
0.568106
0.537159
0.505721
0.474601
0.444361
0.68131
0.659536
0.644715
0.62364
0.597429
0.568106
0.537159
0.505721
0.474602
0.444361
0.676542
0.655057
0.640667
0.620057
0.594274
0.56533
0.534719
0.503568
0.472695
0.442741
0.667047
0.646136
0.632602
0.612917
0.587986
0.559799
0.529854
0.499275
0.468894
0.439509
0.652903
0.632843
0.620582
0.602272
0.57861
0.551548
0.522597
0.492871
0.463222
0.434679
0.634228
0.615285
0.604697
0.5882
0.566211
0.540635
0.512995
0.484397
0.455713
0.428273
0.611178
0.593603
0.585069
0.570802
0.550877
0.527134
0.501113
0.473907
0.446412
0.420321
0.583946
0.567973
0.561848
0.550207
0.532716
0.511138
0.487028
0.461469
0.435378
0.410859
0.55276
0.538601
0.535211
0.526564
0.511857
0.492754
0.470834
0.447164
0.422675
0.399933
0.517882
0.505724
0.505362
0.500046
0.488447
0.47211
0.452636
0.431083
0.408383
0.387595
0.479605
0.469611
0.47253
0.470848
0.46265
0.449345
0.432556
0.413328
0.392586
0.373905
0.438255
0.430556
0.436969
0.439184
0.43465
0.424614
0.410723
0.394012
0.375379
0.35893
0.394179
0.388879
0.398953
0.405285
0.404643
0.398086
0.387282
0.373257
0.356863
0.342741
0.347754
0.344923
0.358777
0.369402
0.372842
0.369941
0.362386
0.351194
0.337148
0.325412
0.299375
0.29905
0.316753
0.331798
0.33947
0.34037
0.336197
0.327962
0.316345
0.307021
0.249455
0.25164
0.27321
0.292751
0.304762
0.309571
0.308887
0.303711
0.294574
0.28764
0.198422
0.203087
0.228488
0.252548
0.268963
0.277752
0.280632
0.278599
0.271961
0.267328
0.146711
0.153796
0.182939
0.211485
0.232323
0.245124
0.251612
0.252801
0.248661
0.246127
0.0947683
0.104175
0.136922
0.169867
0.195098
0.211905
0.222007
0.226494
0.224858
0.224005
0.0430369
0.0546378
0.0908011
0.127996
0.157549
0.178315
0.191984
0.199855
0.200888
0.200973
-0.00803965
0.0055916
0.0449435
0.0861808
0.119934
0.144582
0.161719
0.173006
0.177178
0.176716
-0.0580226
-0.0425591
-0.000286338
0.0447205
0.0825089
0.110934
0.131382
0.145881
0.154043
0.152611
-0.106492
-0.0894048
-0.0445361
0.00390915
0.0455214
0.077595
0.101237
0.118617
0.130632
0.133688
-0.153127
-0.134504
-0.0874949
-0.035968
0.00921402
0.0447694
0.0715311
0.0916109
0.106978
0.115131
-0.197503
-0.177515
-0.128962
-0.0746252
-0.0261801
0.0126409
0.0424208
0.0650937
0.0831692
0.0952055
-0.239197
-0.217754
-0.168944
-0.111769
-0.0604514
-0.0186213
0.0140103
0.0391609
0.059529
0.0744705
-0.277958
-0.255267
-0.206654
-0.14714
-0.0934153
-0.0488458
-0.0135884
0.0138903
0.0363295
0.0537372
-0.313567
-0.289906
-0.241145
-0.180942
-0.124877
-0.0778611
-0.0402461
-0.0106235
0.0137079
0.0333439
-0.34579
-0.321438
-0.27297
-0.212391
-0.154575
-0.105511
-0.0658343
-0.0342781
-0.00825484
0.0133818
-0.374446
-0.349631
-0.302004
-0.241318
-0.182376
-0.131657
-0.0902319
-0.0569742
-0.0294815
-0.0060642
-0.399412
-0.374308
-0.327987
-0.267723
-0.20817
-0.156195
-0.113333
-0.0786165
-0.0498962
-0.024889
-0.420621
-0.395375
-0.350757
-0.291514
-0.231862
-0.179143
-0.134986
-0.0991157
-0.0694239
-0.0430134
-0.438061
-0.412807
-0.370237
-0.312586
-0.253345
-0.200284
-0.155351
-0.118356
-0.0879693
-0.0604341
-0.45178
-0.426636
-0.386404
-0.33087
-0.272556
-0.219548
-0.174208
-0.136479
-0.105371
-0.0772827
-0.46188
-0.436953
-0.399281
-0.346338
-0.289463
-0.236923
-0.191496
-0.153343
-0.121715
-0.093678
-0.46852
-0.443904
-0.408943
-0.358998
-0.304059
-0.252409
-0.207219
-0.168916
-0.136995
-0.108948
-0.47191
-0.447691
-0.415511
-0.368898
-0.316356
-0.266015
-0.221389
-0.183191
-0.151143
-0.122949
-0.472307
-0.448572
-0.419158
-0.376121
-0.326393
-0.27776
-0.234018
-0.196171
-0.164165
-0.135874
-0.470003
-0.446843
-0.420102
-0.380791
-0.334234
-0.287683
-0.245134
-0.20788
-0.176112
-0.1479
-0.465326
-0.442832
-0.418608
-0.38307
-0.339971
-0.295844
-0.254784
-0.218359
-0.187027
-0.159096
-0.458619
-0.436887
-0.41498
-0.383157
-0.34372
-0.302318
-0.263026
-0.22766
-0.196945
-0.169477
-0.450239
-0.429362
-0.409549
-0.381285
-0.34562
-0.307195
-0.269928
-0.235838
-0.205903
-0.179057
-0.440541
-0.420612
-0.402664
-0.377716
-0.345835
-0.310578
-0.275565
-0.242952
-0.213945
-0.187862
-0.42987
-0.410974
-0.394677
-0.372735
-0.344549
-0.312582
-0.280018
-0.249069
-0.221126
-0.195927
-0.418551
-0.400765
-0.385926
-0.366642
-0.341963
-0.313332
-0.283371
-0.254255
-0.227501
-0.203288
-0.406881
-0.390273
-0.376723
-0.359745
-0.338299
-0.312965
-0.285715
-0.258579
-0.233131
-0.20999
-0.395123
-0.379746
-0.367348
-0.35234
-0.333787
-0.311629
-0.287143
-0.262112
-0.238075
-0.216078
-0.383503
-0.369397
-0.358036
-0.344703
-0.328666
-0.309481
-0.287752
-0.264921
-0.242389
-0.221602
-0.372206
-0.359394
-0.348979
-0.337073
-0.323174
-0.306688
-0.287643
-0.267072
-0.24613
-0.226612
-0.361381
-0.349865
-0.340324
-0.329644
-0.317534
-0.303424
-0.286921
-0.268629
-0.249346
-0.231158
-0.351135
-0.340899
-0.33218
-0.322561
-0.311942
-0.299864
-0.285701
-0.269658
-0.252082
-0.235291
-0.341545
-0.332552
-0.324616
-0.315927
-0.306557
-0.296178
-0.284099
-0.270227
-0.254372
-0.239061
-0.332657
-0.32485
-0.317666
-0.309805
-0.301492
-0.292523
-0.282242
-0.270408
-0.256246
-0.242521
-0.324492
-0.317797
-0.311339
-0.304228
-0.296819
-0.289021
-0.280254
-0.270282
-0.257725
-0.24573
-0.317048
-0.31138
-0.305619
-0.299203
-0.292576
-0.285762
-0.278248
-0.269938
-0.258822
-0.248751
-0.310308
-0.305572
-0.300478
-0.294714
-0.288779
-0.282799
-0.276319
-0.269469
-0.259546
-0.251659
-0.304238
-0.300337
-0.295875
-0.29073
-0.285422
-0.280158
-0.274529
-0.268963
-0.259906
-0.254517
-0.298797
-0.295632
-0.291762
-0.287209
-0.282482
-0.277843
-0.272912
-0.268483
-0.259914
-0.257391
-0.293931
-0.291408
-0.288089
-0.2841
-0.279922
-0.27584
-0.271483
-0.268057
-0.259633
-0.260145
-0.289583
-0.287616
-0.284804
-0.281348
-0.277691
-0.274113
-0.270248
-0.267651
-0.259124
-0.262922
-0.285693
-0.284202
-0.281853
-0.278897
-0.275733
-0.272613
-0.269198
-0.267092
-0.258638
-0.263705
-0.282195
-0.28112
-0.279186
-0.276693
-0.273987
-0.271287
-0.268294
-0.266274
-0.258833
-0.249653
-0.279037
-0.278321
-0.276756
-0.274686
-0.272401
-0.270082
-0.267479
-0.265301
-0.259632
-0.245979
-0.276169
-0.27576
-0.274522
-0.272833
-0.270928
-0.268955
-0.266707
-0.264427
-0.260482
-0.246646
-0.273541
-0.273396
-0.272456
-0.271103
-0.269536
-0.267873
-0.265937
-0.263682
-0.260871
-0.247761
-0.271115
-0.271204
-0.270527
-0.26947
-0.268204
-0.266815
-0.26515
-0.263018
-0.260857
-0.249027
-0.268862
-0.269163
-0.268715
-0.267921
-0.26692
-0.265777
-0.264356
-0.262414
-0.260665
-0.250536
-0.266758
-0.267254
-0.267008
-0.266445
-0.265681
-0.264762
-0.263574
-0.26186
-0.260446
-0.252121
-0.264789
-0.265465
-0.265397
-0.265039
-0.264488
-0.263779
-0.262817
-0.261332
-0.260285
-0.253583
-0.262944
-0.263789
-0.26388
-0.263704
-0.263344
-0.26283
-0.262075
-0.260826
-0.260224
-0.254786
-0.261218
-0.262224
-0.262456
-0.262442
-0.262256
-0.261921
-0.261371
-0.260472
-0.260103
-0.255683
-0.259612
-0.260768
-0.261126
-0.261256
-0.261226
-0.261056
-0.2607
-0.260101
-0.259728
-0.256576
-0.258128
-0.259426
-0.259897
-0.260153
-0.260262
-0.260241
-0.260062
-0.259713
-0.259411
-0.257421
-0.256773
-0.258203
-0.258773
-0.259141
-0.25937
-0.259481
-0.259461
-0.259317
-0.259131
-0.257933
-0.255556
-0.257107
-0.257763
-0.258226
-0.25856
-0.258785
-0.258899
-0.258921
-0.258859
-0.258194
-0.254485
-0.256145
-0.256875
-0.257419
-0.25784
-0.25816
-0.258386
-0.258539
-0.258594
-0.258298
-0.253572
-0.255326
-0.256119
-0.256728
-0.257221
-0.257618
-0.257934
-0.258188
-0.258345
-0.258303
-0.252827
-0.254659
-0.255501
-0.256163
-0.256711
-0.257168
-0.257553
-0.257883
-0.258124
-0.258254
-0.252259
-0.254152
-0.255031
-0.255731
-0.256321
-0.256822
-0.257256
-0.25764
-0.257943
-0.258186
-0.251876
-0.25381
-0.254714
-0.25544
-0.256056
-0.256586
-0.257052
-0.257471
-0.257815
-0.258127
-0.251683
-0.253638
-0.254554
-0.255293
-0.255923
-0.256466
-0.256949
-0.257385
-0.257748
-0.258093
-0.259593
-0.258662
-0.260058
-0.259491
-0.259752
-0.25895
-0.258055
-0.256322
-0.254005
-0.250737
-0.246457
-0.240914
-0.23383
-0.225199
-0.214357
-0.201956
-0.186403
-0.170253
-0.150175
-0.131473
-0.109554
-0.0901522
-0.07101
-0.0530413
-0.0398011
-0.0252617
-0.0180013
-0.00754126
-0.00530664
0.00197676
-0.259719
-0.258695
-0.260119
-0.259539
-0.2598
-0.258999
-0.258102
-0.256369
-0.254051
-0.250784
-0.246505
-0.240964
-0.233885
-0.225267
-0.214433
-0.202046
-0.186503
-0.170361
-0.150279
-0.131568
-0.109629
-0.0902008
-0.0710417
-0.0530546
-0.0398096
-0.0252738
-0.018017
-0.00756353
-0.0053303
0.00196289
-0.259966
-0.258757
-0.260238
-0.259632
-0.259894
-0.259093
-0.258194
-0.256464
-0.254147
-0.250884
-0.24661
-0.241075
-0.233986
-0.225401
-0.214583
-0.202213
-0.18668
-0.170548
-0.150457
-0.131733
-0.109767
-0.0903028
-0.0711214
-0.0531041
-0.0398501
-0.0253097
-0.0180518
-0.00760083
-0.00536369
0.0019407
-0.260326
-0.25884
-0.260407
-0.259764
-0.260028
-0.259229
-0.258328
-0.256603
-0.254288
-0.251033
-0.246767
-0.241243
-0.234208
-0.225606
-0.214803
-0.202455
-0.186932
-0.170812
-0.150706
-0.131966
-0.109966
-0.0904569
-0.0712485
-0.0531899
-0.0399228
-0.0253698
-0.0181059
-0.00765345
-0.0054066
0.00191021
-0.260789
-0.258935
-0.260617
-0.259929
-0.260195
-0.2594
-0.258497
-0.256779
-0.25447
-0.251226
-0.246972
-0.241462
-0.234433
-0.225871
-0.215089
-0.202767
-0.187254
-0.171146
-0.151022
-0.132261
-0.110224
-0.0906612
-0.0714221
-0.0533121
-0.0400278
-0.0254549
-0.0181794
-0.00772178
-0.00545887
0.0018714
-0.261342
-0.259032
-0.260858
-0.260119
-0.260387
-0.259598
-0.258694
-0.256985
-0.254685
-0.251456
-0.247218
-0.241728
-0.234727
-0.22619
-0.215433
-0.20314
-0.187637
-0.171543
-0.151399
-0.132617
-0.110536
-0.0909138
-0.071641
-0.0534709
-0.0401651
-0.0255656
-0.0182728
-0.00780633
-0.00552033
0.00182421
-0.26197
-0.259119
-0.261114
-0.260325
-0.260594
-0.259814
-0.25891
-0.257214
-0.254924
-0.251715
-0.247497
-0.24203
-0.235059
-0.226555
-0.215826
-0.203566
-0.188075
-0.171997
-0.151831
-0.133028
-0.110899
-0.0912114
-0.0719038
-0.0536662
-0.0403347
-0.0257026
-0.0183862
-0.00790767
-0.0055908
0.00176856
-0.262661
-0.259184
-0.261373
-0.260535
-0.260804
-0.260038
-0.259135
-0.257456
-0.25518
-0.251994
-0.247799
-0.242361
-0.235423
-0.226957
-0.216258
-0.204035
-0.188559
-0.1725
-0.152308
-0.133482
-0.111315
-0.0915522
-0.0722092
-0.0538979
-0.0405367
-0.0258669
-0.01852
-0.00802641
-0.00567015
0.00170437
-0.263423
-0.259209
-0.261618
-0.260738
-0.261006
-0.260258
-0.25936
-0.257701
-0.255443
-0.252284
-0.248116
-0.242705
-0.235811
-0.227386
-0.216722
-0.20454
-0.189079
-0.173043
-0.152832
-0.133974
-0.111775
-0.0919333
-0.0725557
-0.0541659
-0.0407708
-0.0260591
-0.0186745
-0.00816316
-0.00575822
0.00163155
-0.264241
-0.259182
-0.261841
-0.260921
-0.261189
-0.260464
-0.259573
-0.257939
-0.255702
-0.252575
-0.248437
-0.24306
-0.236211
-0.227833
-0.217206
-0.205073
-0.189624
-0.173612
-0.153394
-0.134504
-0.112276
-0.0923522
-0.0729421
-0.0544701
-0.0410369
-0.0262799
-0.0188497
-0.00831849
-0.00585485
0.00155002
-0.264825
-0.259204
-0.262012
-0.261072
-0.261341
-0.260643
-0.259765
-0.25816
-0.255949
-0.252857
-0.248754
-0.243482
-0.236615
-0.228287
-0.217701
-0.205614
-0.190196
-0.174206
-0.153984
-0.135064
-0.112813
-0.0928062
-0.0733667
-0.0548102
-0.0413348
-0.02653
-0.019046
-0.0084929
-0.00595989
0.00145976
-0.265324
-0.259287
-0.262049
-0.261214
-0.261443
-0.260787
-0.259923
-0.258353
-0.256173
-0.253121
-0.249056
-0.243806
-0.237014
-0.228739
-0.218199
-0.206165
-0.190777
-0.174816
-0.154598
-0.135648
-0.113386
-0.093293
-0.0738283
-0.0551858
-0.041664
-0.0268098
-0.0192633
-0.00868677
-0.00607318
0.00136078
-0.265815
-0.259325
-0.26203
-0.261294
-0.261491
-0.260883
-0.260038
-0.25851
-0.256365
-0.253359
-0.249337
-0.24414
-0.237398
-0.229181
-0.21869
-0.206715
-0.19136
-0.175434
-0.155229
-0.136251
-0.113989
-0.0938103
-0.0743252
-0.0555965
-0.0420242
-0.0271195
-0.0195016
-0.00890037
-0.00619453
0.00125314
-0.266264
-0.259329
-0.261943
-0.261299
-0.261472
-0.260916
-0.2601
-0.258618
-0.256515
-0.253558
-0.249543
-0.244442
-0.237758
-0.229604
-0.219165
-0.207254
-0.191941
-0.176054
-0.155874
-0.136869
-0.114621
-0.0943561
-0.0748562
-0.0560418
-0.0424148
-0.0274591
-0.0197607
-0.0091338
-0.00632372
0.00113699
-0.266633
-0.259319
-0.261764
-0.261217
-0.261373
-0.260877
-0.260096
-0.258668
-0.256613
-0.253714
-0.249837
-0.244708
-0.238085
-0.23
-0.219618
-0.207777
-0.192511
-0.176669
-0.156527
-0.137498
-0.115278
-0.094928
-0.0754192
-0.0565205
-0.0428347
-0.0278282
-0.0200403
-0.00938689
-0.00646049
0.00101252
-0.26687
-0.259288
-0.261483
-0.261032
-0.261178
-0.260751
-0.260016
-0.258649
-0.25665
-0.253811
-0.249978
-0.244928
-0.238371
-0.23036
-0.220039
-0.208275
-0.193065
-0.177271
-0.157183
-0.138132
-0.115955
-0.095522
-0.0760106
-0.0570302
-0.043282
-0.0282258
-0.0203394
-0.0096592
-0.00660447
0.000880038
-0.266852
-0.259197
-0.261097
-0.260732
-0.260879
-0.26053
-0.25985
-0.258553
-0.256615
-0.253841
-0.250066
-0.245095
-0.238607
-0.230676
-0.22042
-0.208738
-0.193594
-0.177855
-0.157834
-0.138766
-0.116648
-0.0961361
-0.0766292
-0.0575704
-0.0437566
-0.0286516
-0.0206582
-0.00995057
-0.0067556
0.000739859
-0.266484
-0.259041
-0.260607
-0.260307
-0.260462
-0.260203
-0.259591
-0.258372
-0.256504
-0.253799
-0.250092
-0.245203
-0.238789
-0.230946
-0.220765
-0.209176
-0.194109
-0.178435
-0.1585
-0.139421
-0.117377
-0.0967882
-0.0772908
-0.0581526
-0.0442672
-0.0291109
-0.0210002
-0.0102625
-0.00691471
0.000592145
-0.266064
-0.258746
-0.259931
-0.259671
-0.259851
-0.259707
-0.259187
-0.258069
-0.256296
-0.253685
-0.250045
-0.245251
-0.238926
-0.231188
-0.221095
-0.209614
-0.194641
-0.179043
-0.159212
-0.140123
-0.118166
-0.0974958
-0.0780069
-0.0587843
-0.0448171
-0.0296055
-0.0213651
-0.0105947
-0.00708116
0.000437258
-0.2636
-0.257499
-0.25888
-0.258681
-0.258945
-0.258962
-0.258568
-0.257574
-0.255912
-0.253406
-0.249869
-0.245185
-0.238948
-0.231311
-0.2213
-0.209913
-0.195031
-0.179492
-0.159774
-0.140672
-0.118819
-0.0980894
-0.0786273
-0.0593546
-0.0453194
-0.0300803
-0.0217151
-0.0109285
-0.00724394
0.000277553
-0.251653
-0.254967
-0.257704
-0.257629
-0.257988
-0.258166
-0.257889
-0.257005
-0.255449
-0.253109
-0.249552
-0.244888
-0.238686
-0.231087
-0.221122
-0.20977
-0.19497
-0.179452
-0.159881
-0.140785
-0.11911
-0.0983982
-0.0790431
-0.0598157
-0.0457617
-0.0305666
-0.0220812
-0.0113175
-0.00742661
7.91931e-05
-0.246728
-0.252377
-0.255467
-0.255477
-0.255992
-0.256418
-0.256312
-0.255559
-0.254079
-0.251725
-0.248307
-0.24375
-0.237611
-0.230083
-0.22019
-0.208912
-0.194258
-0.178823
-0.159518
-0.140511
-0.119156
-0.0985574
-0.0794113
-0.0603082
-0.0462689
-0.0311592
-0.0225356
-0.011804
-0.00765626
-0.00016629
-0.243507
-0.248992
-0.252014
-0.252348
-0.253157
-0.253913
-0.254053
-0.253491
-0.252153
-0.249939
-0.246621
-0.242154
-0.236085
-0.22864
-0.21884
-0.207656
-0.193186
-0.177864
-0.158885
-0.140015
-0.119043
-0.098613
-0.0797206
-0.060789
-0.046782
-0.0317841
-0.0230183
-0.0123264
-0.00790257
-0.000426783
-0.239954
-0.244384
-0.24715
-0.248099
-0.249383
-0.250564
-0.251044
-0.250755
-0.249636
-0.247626
-0.244454
-0.24012
-0.234164
-0.22684
-0.217176
-0.206118
-0.191886
-0.176712
-0.158117
-0.139421
-0.118882
-0.0986609
-0.0800447
-0.061317
-0.0473397
-0.0324703
-0.0235438
-0.012896
-0.00816778
-0.000702891
-0.234638
-0.238512
-0.240996
-0.242684
-0.244592
-0.24628
-0.247182
-0.247247
-0.246419
-0.244666
-0.241708
-0.237567
-0.231779
-0.224622
-0.215151
-0.204263
-0.190329
-0.175346
-0.157199
-0.138726
-0.118667
-0.0987025
-0.0803834
-0.0618941
-0.0479431
-0.0332187
-0.0241128
-0.0135122
-0.00845231
-0.000992285
-0.227302
-0.231505
-0.233837
-0.236228
-0.238834
-0.241078
-0.242453
-0.242929
-0.242451
-0.241012
-0.238327
-0.234444
-0.228881
-0.221943
-0.212726
-0.202056
-0.188486
-0.173748
-0.156109
-0.137918
-0.118382
-0.098728
-0.0807258
-0.0625114
-0.0485857
-0.0340223
-0.0247221
-0.0141704
-0.00875569
-0.0012913
-0.218465
-0.22356
-0.22599
-0.228979
-0.232274
-0.23509
-0.236954
-0.237867
-0.237776
-0.236693
-0.234335
-0.230757
-0.225475
-0.218803
-0.209902
-0.199502
-0.186359
-0.171923
-0.154846
-0.136999
-0.118021
-0.0987337
-0.0810654
-0.063161
-0.0492617
-0.0348735
-0.0253679
-0.014865
-0.0090772
-0.00159578
-0.208632
-0.214897
-0.21772
-0.221211
-0.225124
-0.2285
-0.230849
-0.232201
-0.232507
-0.231801
-0.229797
-0.226563
-0.221612
-0.215246
-0.206712
-0.19663
-0.18397
-0.169891
-0.15342
-0.135978
-0.117587
-0.0987177
-0.0813966
-0.0638339
-0.0499644
-0.035763
-0.0260453
-0.0155891
-0.00941572
-0.00190133
-0.198251
-0.205747
-0.209209
-0.213148
-0.217587
-0.221493
-0.224314
-0.226091
-0.226791
-0.226464
-0.224822
-0.221924
-0.217371
-0.21134
-0.203215
-0.193492
-0.181353
-0.167685
-0.151849
-0.13487
-0.11708
-0.0986771
-0.0817136
-0.0645193
-0.0506859
-0.0366796
-0.0267485
-0.0163348
-0.00976967
-0.00220346
-0.187717
-0.196317
-0.200568
-0.204947
-0.209826
-0.214218
-0.217497
-0.219686
-0.22077
-0.220813
-0.219543
-0.217012
-0.212841
-0.207167
-0.19948
-0.190148
-0.178558
-0.165343
-0.150157
-0.133689
-0.116506
-0.0986091
-0.0820107
-0.0652058
-0.0514175
-0.0376113
-0.0274709
-0.0170933
-0.010137
-0.00249799
-0.17728
-0.186769
-0.191868
-0.196705
-0.201958
-0.206785
-0.210507
-0.213098
-0.214557
-0.21496
-0.214063
-0.211892
-0.208109
-0.202811
-0.195577
-0.186661
-0.17563
-0.162905
-0.148368
-0.132451
-0.115871
-0.0985109
-0.082283
-0.065882
-0.0521504
-0.0385462
-0.0282055
-0.0178559
-0.0105153
-0.00278129
-0.167088
-0.177239
-0.183165
-0.18848
-0.194066
-0.199276
-0.203418
-0.206403
-0.208231
-0.208985
-0.208458
-0.206644
-0.203256
-0.19834
-0.191566
-0.183084
-0.172612
-0.160402
-0.146506
-0.131168
-0.115184
-0.0983801
-0.0825263
-0.0665376
-0.0528764
-0.0394731
-0.0289455
-0.0186143
-0.010902
-0.00305052
-0.157242
-0.16784
-0.174513
-0.180312
-0.186206
-0.191751
-0.196284
-0.199654
-0.201847
-0.202946
-0.202784
-0.201327
-0.198334
-0.193807
-0.187493
-0.179458
-0.169539
-0.157862
-0.144593
-0.12985
-0.114451
-0.0982144
-0.0827375
-0.067164
-0.0535882
-0.0403822
-0.0296845
-0.0193609
-0.0112942
-0.0033037
-0.147809
-0.158666
-0.165972
-0.172239
-0.178425
-0.184259
-0.189149
-0.192889
-0.195442
-0.196882
-0.197079
-0.195979
-0.19338
-0.189246
-0.18339
-0.175812
-0.166436
-0.155303
-0.142644
-0.128506
-0.113678
-0.0980122
-0.0829144
-0.0677541
-0.0542798
-0.0412651
-0.0304168
-0.0200894
-0.0116891
-0.00353972
-0.138836
-0.149792
-0.157606
-0.164301
-0.170761
-0.176847
-0.182055
-0.186144
-0.189049
-0.190825
-0.191374
-0.19063
-0.188422
-0.184686
-0.179281
-0.172168
-0.163323
-0.152738
-0.140672
-0.127141
-0.11287
-0.0977727
-0.0830559
-0.0683029
-0.054946
-0.0421152
-0.0311372
-0.0207944
-0.0120838
-0.00375826
-0.130355
-0.141281
-0.149476
-0.156542
-0.163254
-0.169559
-0.175044
-0.179455
-0.182699
-0.184804
-0.185698
-0.185307
-0.183485
-0.180148
-0.175188
-0.168542
-0.160216
-0.15018
-0.13869
-0.12576
-0.112034
-0.0974958
-0.0831613
-0.0688064
-0.0555828
-0.0429271
-0.0318412
-0.0214718
-0.0124754
-0.00395962
-0.12239
-0.133183
-0.14164
-0.149009
-0.155943
-0.162437
-0.168159
-0.172862
-0.176425
-0.178852
-0.18008
-0.180037
-0.178593
-0.175654
-0.171131
-0.164951
-0.157131
-0.147639
-0.136707
-0.124369
-0.111174
-0.0971825
-0.0832309
-0.0692624
-0.0561866
-0.0436966
-0.0325245
-0.0221181
-0.0128609
-0.00414455
-0.114956
-0.125536
-0.134149
-0.14175
-0.148869
-0.155523
-0.161446
-0.166405
-0.170265
-0.173
-0.174551
-0.174847
-0.173772
-0.171227
-0.167131
-0.161411
-0.154084
-0.145127
-0.134735
-0.122974
-0.110297
-0.0968351
-0.0832656
-0.0696696
-0.0567547
-0.0444205
-0.033183
-0.0227308
-0.0132371
-0.00431402
-0.108061
-0.118369
-0.127047
-0.13481
-0.142073
-0.148858
-0.154947
-0.160129
-0.164259
-0.167285
-0.169145
-0.16977
-0.169051
-0.166891
-0.16321
-0.157942
-0.151092
-0.142655
-0.132788
-0.121583
-0.10941
-0.096457
-0.0832666
-0.0700275
-0.0572844
-0.0450962
-0.0338127
-0.023308
-0.013601
-0.00446907
-0.101707
-0.111704
-0.12037
-0.128232
-0.135598
-0.142484
-0.148707
-0.154079
-0.158448
-0.161745
-0.163898
-0.164838
-0.16446
-0.162674
-0.159394
-0.154565
-0.148176
-0.140241
-0.130877
-0.120206
-0.10852
-0.0960531
-0.083236
-0.070337
-0.0577735
-0.0457218
-0.0344097
-0.0238479
-0.0139495
-0.00461069
-0.0958929
-0.105554
-0.114151
-0.122054
-0.129483
-0.136441
-0.142769
-0.148298
-0.152877
-0.156423
-0.158849
-0.160088
-0.160035
-0.158607
-0.155711
-0.151302
-0.145355
-0.1379
-0.129018
-0.118854
-0.107636
-0.0956294
-0.0831765
-0.0705994
-0.05822
-0.046296
-0.0349701
-0.0243491
-0.0142797
-0.0047397
-0.0906153
-0.0999325
-0.108415
-0.116313
-0.123769
-0.130771
-0.137177
-0.142834
-0.147593
-0.151362
-0.15404
-0.15556
-0.155812
-0.154722
-0.15219
-0.148181
-0.142654
-0.135652
-0.127228
-0.117541
-0.106767
-0.0951935
-0.0830917
-0.0708172
-0.0586226
-0.0468177
-0.0354903
-0.0248104
-0.0145885
-0.00485673
-0.0858711
-0.0948468
-0.103185
-0.111041
-0.118494
-0.125516
-0.131975
-0.137734
-0.142644
-0.146609
-0.149516
-0.151295
-0.151831
-0.151056
-0.148866
-0.145231
-0.140099
-0.133519
-0.125525
-0.116281
-0.105927
-0.0947541
-0.0829861
-0.0709933
-0.0589802
-0.0472864
-0.0359667
-0.0252304
-0.0148735
-0.00496215
-0.0816584
-0.090306
-0.0984828
-0.106271
-0.113697
-0.120718
-0.12721
-0.133046
-0.138081
-0.142215
-0.145326
-0.147339
-0.148135
-0.14765
-0.145775
-0.142485
-0.137717
-0.131528
-0.123931
-0.115093
-0.105126
-0.0943213
-0.0828654
-0.0711316
-0.0592927
-0.0477016
-0.0363961
-0.0256077
-0.0151322
-0.0050561
-0.0779777
-0.0863201
-0.0943307
-0.102035
-0.109417
-0.116422
-0.122928
-0.128821
-0.133957
-0.138233
-0.141522
-0.143743
-0.144773
-0.144548
-0.142958
-0.139978
-0.135542
-0.129704
-0.122467
-0.113995
-0.10438
-0.0939066
-0.0827361
-0.0712363
-0.0595601