/*--------------------------------*- C++ -*----------------------------------*\
  =========                 |
  \\      /  F ield         | OpenFOAM: The Open Source CFD Toolbox
   \\    /   O peration     | Website:  https://openfoam.org
    \\  /    A nd           | Version:  7
     \\/     M anipulation  |
\*---------------------------------------------------------------------------*/
FoamFile
{
    version     2.0;
    format      ascii;
    class       surfaceScalarField;
    location    "45";
    object      phi;
}
// * * * * * * * * * * * * * * * * * * * * * * * * * * * * * * * * * * * * * //

dimensions      [0 3 -1 0 0 0 0];

internalField   nonuniform List<scalar> 
16735
(
-7.31674e-05
7.32672e-05
-9.97662e-08
-0.000260887
0.000187942
-2.22301e-07
-0.00054399
0.000283395
-2.91923e-07
-0.000903604
0.000359933
-3.18884e-07
-0.00132266
0.000419373
-3.1448e-07
-0.00178768
0.000465305
-2.88168e-07
-0.00229088
0.000503445
-2.45029e-07
-0.00283298
0.000542285
-1.84407e-07
-0.00342533
0.000592456
-9.98059e-08
0.000666743
2.20364e-08
-0.0040921
-7.23489e-05
0.000145616
-0.000258045
0.000373638
-0.000538004
0.000563353
-0.000893273
0.000715202
-0.0013065
0.000832604
-0.00176366
0.000922465
-0.00225613
0.00099591
-0.00278358
0.00106974
-0.00335652
0.00116539
0.00130874
-0.00399852
-7.07466e-05
0.000216363
-0.000252464
0.000555355
-0.000526221
0.00083711
-0.000872909
0.00106189
-0.00127462
0.00123432
-0.00171625
0.00136409
-0.00218746
0.00146712
-0.0026858
0.00156808
-0.00321997
0.00169956
0.00190091
-0.00381213
-6.8426e-05
0.000284789
-0.000244335
0.000731264
-0.000508999
0.00110177
-0.000843069
0.00139596
-0.00122784
0.00161908
-0.00164659
0.00178285
-0.00208644
0.00190696
-0.00254159
0.00202323
-0.00301783
0.00217581
0.00241751
-0.00353443
-6.54785e-05
0.000350267
-0.000233926
0.000899712
-0.000486828
0.00135468
-0.000804517
0.00171365
-0.00116725
0.00198182
-0.00155627
0.00217187
-0.00195524
0.00230592
-0.00235368
0.00242167
-0.00275314
0.00257527
0.00283183
-0.00316746
-6.20135e-05
0.000412281
-0.000221553
0.00105925
-0.000460283
0.00159341
-0.000758127
0.00201149
-0.00109412
0.00231781
-0.00144706
0.00252481
-0.00179633
0.00265519
-0.00212528
0.00275062
-0.00242961
0.00287959
0.00311589
-0.00271367
-5.81496e-05
0.00047043
-0.000207556
0.00120866
-0.000429962
0.00181581
-0.000704778
0.00228631
-0.00100967
0.0026227
-0.00132066
0.0028358
-0.00161212
0.00294666
-0.00185957
0.00299807
-0.00205103
0.00307105
0.00324057
-0.00217571
-5.40055e-05
0.000524436
-0.000192263
0.00134691
-0.000396415
0.00201996
-0.00064522
0.00253511
-0.000914827
0.00289231
-0.00117826
0.00309924
-0.00140432
0.00317271
-0.00155893
0.00315268
-0.00162037
0.0031325
0.00317659
-0.0015564
-4.96914e-05
0.000574127
-0.000175963
0.00147319
-0.000360086
0.00220409
-0.000579947
0.00275498
-0.000810024
0.00312239
-0.00102017
0.00330938
-0.00117315
0.0033257
-0.00122361
0.00320314
-0.00113777
0.00304666
0.00289846
-0.000859632
-4.5303e-05
0.00061943
-0.000158887
0.00158677
-0.000321249
0.00236645
-0.000509082
0.00294281
-0.000694935
0.00330824
-0.000845278
0.00345972
-0.000916581
0.003397
-0.00084998
0.00313653
-0.000593979
0.00279066
0.00241031
-0.000105829
-4.09172e-05
0.000660347
-0.000141187
0.00168704
-0.000279978
0.00250524
-0.000432291
0.00309512
-0.000568316
0.00344427
-0.000650784
0.00354219
-0.000629855
0.00337608
-0.000431729
0.00293841
5.06342e-05
0.0023083
0.00164021
0.000820732
-3.65916e-05
0.000696939
-0.00012293
0.00177338
-0.000236125
0.00261844
-0.000348747
0.00320774
-0.000427885
0.0035234
-0.000431807
0.00354611
-0.0003042
0.00324847
3.02554e-05
0.00260395
0.000721763
0.00161679
0.000499177
0.00186279
-3.23637e-05
0.000729303
-0.000104098
0.00184511
-0.000189323
0.00270366
-0.000257143
0.00327556
-0.000270334
0.00353659
-0.000181412
0.00345719
7.56862e-05
0.00299137
0.000596505
0.00208313
0.00153419
0.000679109
-0.00102913
0.00306249
-2.8251e-05
0.000757554
-8.45873e-05
0.00190145
-0.000139001
0.00275808
-0.000155768
0.00329233
-9.16114e-05
0.00347244
0.000108745
0.00325684
0.000521148
0.00257897
0.00125733
0.00134695
0.00250865
-0.000572212
-0.00298306
0.00446258
-2.42458e-05
0.000781799
-6.41926e-05
0.0019414
-8.43717e-05
0.00277825
-4.25256e-05
0.00325048
0.000112959
0.00331695
0.000448291
0.0029215
0.00105291
0.00197435
0.00205281
0.000347056
0.00369117
-0.00221058
-0.00539623
0.00610435
-2.03045e-05
0.000802104
-4.25769e-05
0.00196367
-2.43549e-05
0.00276003
8.50407e-05
0.00314109
0.000348538
0.00305346
0.000847047
0.002423
0.00168818
0.00113322
0.00301307
-0.000977841
0.00512661
-0.00432411
-0.00828508
0.00801545
-1.63297e-05
0.000818434
-1.91891e-05
0.00196653
4.23332e-05
0.00269851
0.000229887
0.00295353
0.000620765
0.00266258
0.00131502
0.00172874
0.0024436
4.63123e-06
0.00416446
-0.0026987
0.00684199
-0.00700165
-0.0116354
0.0101923
-1.21638e-05
0.000830597
6.77587e-06
0.00194759
0.000117575
0.00258771
0.00039565
0.00267546
0.000935998
0.00212223
0.00186227
0.000802475
0.00333359
-0.00146669
0.00552897
-0.00489408
0.00883162
-0.0103043
-0.0153944
0.0125907
-7.62769e-06
0.000838225
3.57975e-05
0.00190416
0.000203761
0.00241975
0.000586819
0.0022924
0.00130146
0.00140759
0.00249898
-0.000395037
0.00436956
-0.00333727
0.00712484
-0.00764937
0.0110568
-0.0142362
-0.0194763
0.0151388
-2.10584e-06
0.000840331
6.99596e-05
0.0018321
0.000303981
0.00218573
0.000808766
0.00178762
0.00172511
0.000491241
0.00323426
-0.00190418
0.00555539
-0.0056584
0.0089433
-0.0110373
0.0134859
-0.0187789
-0.0237563
0.0177659
4.78845e-06
0.000835543
0.000110685
0.0017262
0.0004218
0.00187461
0.00106756
0.00114185
0.00221513
-0.000656323
0.00407487
-0.00376393
0.0068828
-0.00846633
0.0108967
-0.0150512
0.0159622
-0.0238444
-0.0314159
0.0236219
1.33438e-05
0.000822199
0.000159795
0.00157975
0.0005611
0.00147331
0.00136949
0.000333464
0.002779
-0.00206583
0.00502374
-0.00600867
0.0083362
-0.0117788
0.0129039
-0.0196188
0.0184444
-0.0293849
-0.038741
0.0257694
2.43773e-05
0.000797821
0.000219216
0.00138491
0.000725693
0.000966828
0.00172017
-0.000661009
0.00342176
-0.00376742
0.00607665
-0.00866356
0.0098852
-0.0155873
0.0148935
-0.0246272
0.0207362
-0.0352275
-0.0456163
0.0276115
3.8394e-05
0.000759427
0.000290706
0.0011326
0.00091883
0.000338704
0.00212344
-0.00186562
0.00414358
-0.00578756
0.00721803
-0.011738
0.0114761
-0.0198455
0.0167878
-0.0299389
0.0226754
-0.0411151
-0.0519411
0.0290003
5.58608e-05
0.000703567
0.00037568
0.00081278
0.00114271
-0.000428322
0.00258028
-0.00330319
0.0049375
-0.00814478
0.00841798
-0.0152185
0.0130362
-0.0244637
0.0184776
-0.0353802
0.0241758
-0.0468133
-0.0576136
0.0298482
7.71424e-05
0.000626424
0.000475065
0.000414857
0.00139806
-0.00135132
0.00308787
-0.004993
0.00578791
-0.0108448
0.00963198
-0.0190625
0.0144837
-0.0293154
0.0198682
-0.0407648
0.0251934
-0.0521385
-0.0625867
0.0301665
0.000102478
0.000523947
0.000589203
-7.18677e-05
0.00168389
-0.002446
0.00363901
-0.00694812
0.00667017
-0.013876
0.0108046
-0.023197
0.0157406
-0.0342514
0.0208986
-0.0459227
0.0257322
-0.0569721
-0.066874
0.0300195
0.000131973
0.000391974
0.000717793
-0.000657688
0.00199725
-0.00372546
0.00422188
-0.00917275
0.00755169
-0.0172058
0.011877
-0.0275223
0.0167461
-0.0391205
0.0215462
-0.0507228
0.0258325
-0.0612585
-0.0705267
0.0294852
0.000165598
0.000226376
0.00085985
-0.00135194
0.00233318
-0.00519879
0.00482006
-0.0116596
0.00839472
-0.0207805
0.0127955
-0.0319231
0.0174635
-0.0437885
0.0218211
-0.0550803
0.0255537
-0.0649911
-0.0736171
0.0286441
0.000203186
2.31896e-05
0.00101367
-0.00216243
0.00268463
-0.00686975
0.0054133
-0.0143883
0.00916047
-0.0245276
0.0135192
-0.0362818
0.0178816
-0.048151
0.0217563
-0.0589551
0.0249623
-0.068197
-0.0762232
0.0275684
0.000244417
-0.000221228
0.00117683
-0.00309484
0.00304257
-0.00873549
0.00597877
-0.0173245
0.00981389
-0.0283628
0.0140238
-0.0404917
0.0180107
-0.0521379
0.0213971
-0.0623415
0.0241224
-0.0709223
-0.0784188
0.026318
0.000288823
-0.000510051
0.00134614
-0.00415215
0.00339627
-0.0107856
0.0064931
-0.0204213
0.0103277
-0.0321974
0.014302
-0.044466
0.0178755
-0.0557114
0.0207927
-0.0652587
0.0230911
-0.0732207
-0.0802687
0.024941
0.000335755
-0.000845805
0.00151772
-0.00533412
0.00373385
-0.0130018
0.00693473
-0.0236222
0.0106848
-0.0359474
0.0143602
-0.0481414
0.017509
-0.0588603
0.0199907
-0.0677404
0.0219163
-0.0751463
-0.0818266
0.0234742
0.00038439
-0.0012302
0.00168709
-0.00663682
0.00404302
-0.0153577
0.00728602
-0.0268652
0.0108784
-0.0395398
0.0142152
-0.0514781
0.0169473
-0.0615924
0.0190343
-0.0698274
0.0206368
-0.0767488
-0.0831348
0.021945
0.000433742
-0.00166394
0.00184934
-0.00805242
0.00431208
-0.0178204
0.00753472
-0.0300878
0.0109112
-0.0429164
0.0138895
-0.0544564
0.0162257
-0.0639286
0.0179603
-0.0715619
0.0192829
-0.0780714
-0.0842256
0.0203737
0.000482681
-0.00214662
0.00199937
-0.00956911
0.00453087
-0.0203519
0.00767454
-0.0332315
0.0107927
-0.0460345
0.0134088
-0.0570725
0.015377
-0.0658968
0.0167994
-0.0729844
0.0178779
-0.0791499
-0.0851228
0.0187751
0.000529974
-0.00267659
0.00213218
-0.0111713
0.00469152
-0.0229113
0.00770483
-0.0362448
0.010537
-0.0488666
0.0127985
-0.059334
0.0144298
-0.0675281
0.0155765
-0.074131
0.0164393
-0.0800127
-0.0858435
0.01716
0.000574338
-0.00325093
0.0022432
-0.0128402
0.00478896
-0.025457
0.00762961
-0.0390855
0.0101609
-0.0513979
0.0120831
-0.0612563
0.0134089
-0.0688539
0.014311
-0.0750331
0.0149804
-0.0806821
-0.0863996
0.0155365
0.000614495
-0.00386543
0.00232856
-0.0145542
0.00482102
-0.0279495
0.00745642
-0.0417209
0.00968211
-0.0536236
0.0112849
-0.062859
0.0123345
-0.0699035
0.0130182
-0.0757168
0.0135109
-0.0811748
-0.0867994
0.0139107
0.000649237
-0.00451466
0.00238534
-0.0162903
0.00478824
-0.0303524
0.00719507
-0.0441277
0.00911811
-0.0555466
0.0104232
-0.0641641
0.0112236
-0.0707039
0.01171
-0.0762032
0.0120383
-0.0815031
-0.0870487
0.0122875
0.000677478
-0.00519214
0.00241167
-0.0180245
0.0046934
-0.0326341
0.00685658
-0.0462909
0.00848526
-0.0571753
0.00951484
-0.0651937
0.0100894
-0.0712785
0.0103954
-0.0765092
0.0105682
-0.081676
-0.0871514
0.010671
0.000698307
-0.00589045
0.00240678
-0.019733
0.00454104
-0.0347684
0.00645238
-0.0482022
0.0077985
-0.0585214
0.00857396
-0.0659691
0.00894275
-0.0716473
0.00908133
-0.0766477
0.00910517
-0.0816998
-0.0871099
0.0090637
0.000711016
-0.00660146
0.00237095
-0.0213929
0.00433681
-0.0367342
0.00599367
-0.0498591
0.00707106
-0.0595988
0.00761226
-0.0665103
0.00779207
-0.0718271
0.00777328
-0.076629
0.00765255
-0.0815791
-0.0869256
0.00746824
0.000715125
-0.00731659
0.00230534
-0.0229832
0.00408704
-0.0385159
0.00549104
-0.0512631
0.00631446
-0.0604222
0.00663939
-0.0668353
0.006644
-0.0718317
0.00647532
-0.0764603
0.00621311
-0.0813169
-0.086599
0.00588647
0.000710384
-0.00802697
0.00221186
-0.0244846
0.0037983
-0.0401024
0.00495421
-0.052419
0.00553858
-0.0610066
0.00566323
-0.0669599
0.00550389
-0.0716724
0.00519073
-0.0761471
0.00478894
-0.0809151
-0.0861298
0.00431973
0.000696765
-0.00872374
0.00209292
-0.0258808
0.00347707
-0.0414865
0.00439191
-0.0533338
0.00475177
-0.0613665
0.00469024
-0.0668984
0.00437621
-0.0713583
0.00392278
-0.0756937
0.00338169
-0.080374
-0.0855163
0.00276824
0.000674449
-0.00939819
0.00195127
-0.0271576
0.00312954
-0.0426648
0.00381183
-0.0540161
0.00396102
-0.0615156
0.00372555
-0.0666629
0.00326472
-0.0708975
0.00267549
-0.0751045
0.00199362
-0.0796921
-0.0847501
0.00122743
0.000643828
-0.010042
0.00179
-0.0283038
0.00276151
-0.0436363
0.00322065
-0.0544753
0.00317208
-0.0614671
0.00277323
-0.0662641
0.00217224
-0.0702965
0.00145186
-0.0743841
0.000636125
-0.0788764
-0.0838054
-0.000308573
0.000605476
-0.0106475
0.00161233
-0.0293106
0.0023783
-0.0444023
0.00262415
-0.0547211
0.00238969
-0.0612326
0.00183654
-0.0657109
0.00110097
-0.0695609
0.000244444
-0.0735276
-0.000696592
-0.0779353
-0.0827572
-0.00174482
0.000560093
-0.0112076
0.00142126
-0.0301718
0.00198475
-0.0449658
0.00202726
-0.0547636
0.00161762
-0.060823
0.000918321
-0.0650116
4.45187e-05
-0.0686871
-0.000926217
-0.0725568
-0.00200921
-0.0768523
-0.0815881
-0.00317836
0.00050848
-0.0117161
0.00121967
-0.030883
0.00158524
-0.0453313
0.00143415
-0.0546125
0.000858727
-0.0602475
1.47724e-05
-0.0641677
-0.000970668
-0.0677017
-0.0020732
-0.0714543
-0.00328576
-0.0756398
-0.0802862
-0.00458758
0.000451537
-0.0121676
0.00101035
-0.0314418
0.00118354
-0.0455045
0.000848168
-0.0542772
0.00011714
-0.0595165
-0.000852482
-0.0631981
-0.00196731
-0.0665869
-0.00319288
-0.0702287
-0.0045314
-0.0743013
-0.0788519
-0.00596574
0.000390253
-0.0125579
0.000796173
-0.0318477
0.000782566
-0.0454909
0.000273636
-0.0537682
-0.000605592
-0.0586373
-0.00170368
-0.0621
-0.00293763
-0.0653529
-0.00428299
-0.0688834
-0.00574573
-0.0728385
-0.0772873
-0.00731029
0.000325545
-0.0128834
0.000580184
-0.0321024
0.000385717
-0.0452964
-0.00028965
-0.0530929
-0.00130922
-0.0576177
-0.00253059
-0.0608786
-0.00388031
-0.0640032
-0.00534256
-0.0674211
-0.00692746
-0.0712536
-0.0755967
-0.00861809
0.000258226
-0.0131416
0.000364329
-0.0322085
1.5495e-05
-0.0449476
-0.00083666
-0.0522407
-0.00199285
-0.0564615
-0.00333232
-0.0595391
-0.00479458
-0.0625409
-0.00637096
-0.0658447
-0.00807514
-0.0695494
-0.0737865
-0.00988534
0.000189913
-0.0133315
0.000150546
-0.0321691
-0.00039277
-0.0444043
-0.0013732
-0.0512603
-0.0026547
-0.05518
-0.00410797
-0.0580859
-0.00567971
-0.0609692
-0.00736742
-0.064157
-0.00918749
-0.0677294
-0.0718617
-0.0111122
0.000119363
-0.0134509
-5.64332e-05
-0.0319933
-0.000768512
-0.0436922
-0.0018931
-0.0501357
-0.00329411
-0.053779
-0.00485685
-0.0565231
-0.00653524
-0.0592908
-0.00833147
-0.0623608
-0.0102646
-0.0657963
-0.06982
-0.0123064
4.35877e-05
-0.0134945
-0.000287612
-0.0316621
-0.00113505
-0.0428448
-0.00239427
-0.0488765
-0.00391033
-0.052263
-0.00557868
-0.0548548
-0.00736149
-0.057508
-0.00926412
-0.0604582
-0.0113054
-0.063755
-0.0676609
-0.0134645
-3.18897e-05
-0.0134626
-0.000501648
-0.0311923
-0.00149037
-0.0418561
-0.00287612
-0.0474907
-0.00450221
-0.0506369
-0.00627288
-0.0530841
-0.00815907
-0.0556218
-0.0101687
-0.0584486
-0.0123048
-0.0616188
-0.0653993
-0.0145663
-0.00010282
-0.0133598
-0.000707304
-0.0305879
-0.00183276
-0.0407306
-0.00333823
-0.0459853
-0.00506902
-0.0489061
-0.0069384
-0.0512147
-0.00892598
-0.0536342
-0.0110437
-0.0563309
-0.0133016
-0.0593609
-0.0631737
-0.0155272
-0.000174264
-0.0131855
-0.000905811
-0.0298563
-0.00216132
-0.0394751
-0.00378
-0.0443666
-0.00561024
-0.0470759
-0.00757422
-0.0492507
-0.00965742
-0.051551
-0.0118608
-0.0541275
-0.0141499
-0.0570718
-0.0604499
-0.0168737
-0.000244368
-0.0129411
-0.00109707
-0.0290036
-0.00247543
-0.0380967
-0.00420099
-0.042641
-0.00612567
-0.0451512
-0.00817973
-0.0471967
-0.0103502
-0.0493806
-0.0126331
-0.0518445
-0.0150457
-0.0546593
-0.057741
-0.0177546
-0.00031253
-0.0126286
-0.00128062
-0.0280355
-0.00277462
-0.0366027
-0.00460081
-0.0408148
-0.00661499
-0.043137
-0.00875481
-0.0450568
-0.0110105
-0.0471249
-0.0133865
-0.0494685
-0.0159163
-0.0521294
-0.0550025
-0.0186548
-0.000378368
-0.0122502
-0.00145592
-0.026958
-0.00305849
-0.0350002
-0.00497915
-0.0388942
-0.00707779
-0.0410384
-0.00929867
-0.042836
-0.0116353
-0.0447883
-0.0140977
-0.0470061
-0.0167159
-0.0495113
-0.0522085
-0.0195099
-0.000441571
-0.0118087
-0.00162252
-0.025777
-0.0033267
-0.033296
-0.00533579
-0.0368851
-0.00751392
-0.0388602
-0.00981155
-0.0405383
-0.0122258
-0.042374
-0.0147696
-0.0444623
-0.0174675
-0.0468134
-0.0493486
-0.0203275
-0.000501867
-0.0113068
-0.00178001
-0.0244989
-0.00357896
-0.031497
-0.00567054
-0.0347935
-0.00792322
-0.0366075
-0.0102932
-0.0381684
-0.0127807
-0.0398865
-0.0154001
-0.0418429
-0.0181718
-0.0440417
-0.046419
-0.0211014
-0.000559018
-0.0107478
-0.00192805
-0.0231299
-0.00381503
-0.0296101
-0.00598328
-0.0326252
-0.0083056
-0.0342852
-0.0107435
-0.0357305
-0.0132998
-0.0373301
-0.0159895
-0.0391532
-0.018831
-0.0412002
-0.0434199
-0.02183
-0.00061281
-0.010135
-0.00206635
-0.0216763
-0.00403473
-0.0276417
-0.0062739
-0.0303861
-0.00866095
-0.0318982
-0.0111622
-0.0332292
-0.0137828
-0.0347096
-0.016538
-0.036398
-0.0194452
-0.038293
-0.0403536
-0.0225115
-0.000663058
-0.00947192
-0.00219469
-0.0201447
-0.00423789
-0.0255985
-0.00654232
-0.0280816
-0.00898922
-0.0294513
-0.0115493
-0.0306692
-0.0142294
-0.0320294
-0.0170453
-0.0335821
-0.0200141
-0.0353242
-0.0372235
-0.0231443
-0.000709599
-0.00876232
-0.00231287
-0.0185414
-0.0044244
-0.023487
-0.00678849
-0.0257175
-0.00929033
-0.0269494
-0.0119045
-0.028055
-0.0146395
-0.0292944
-0.0175115
-0.0307101
-0.0205375
-0.0322983
-0.0340337
-0.0237272
-0.000752294
-0.00801003
-0.00242071
-0.016873
-0.00459417
-0.0213135
-0.00701237
-0.0232993
-0.00956423
-0.0243976
-0.0122278
-0.0253915
-0.0150129
-0.0265093
-0.0179361
-0.0277868
-0.0210146
-0.0292198
-0.030789
-0.0242593
-0.000791022
-0.00721901
-0.00251808
-0.0151459
-0.0047471
-0.0190845
-0.00721392
-0.0208325
-0.00981086
-0.0218006
-0.012519
-0.0226834
-0.0153494
-0.0236788
-0.0183191
-0.0248172
-0.021445
-0.0260939
-0.0274945
-0.0247396
-0.000825681
-0.00639333
-0.00260488
-0.0133667
-0.00488316
-0.0168062
-0.00739311
-0.0183226
-0.0100302
-0.0191636
-0.0127781
-0.0199354
-0.015649
-0.020808
-0.01866
-0.0218062
-0.0218284
-0.0229254
-0.0241553
-0.0251675
-0.000856182
-0.00553715
-0.002681
-0.0115419
-0.00500229
-0.0144849
-0.00754993
-0.0157749
-0.0102222
-0.0164913
-0.013005
-0.0171526
-0.0159113
-0.0179016
-0.0189587
-0.0187588
-0.0221644
-0.0197197
-0.0207771
-0.0255426
-0.000882454
-0.00465469
-0.00274637
-0.00967801
-0.00510445
-0.0121268
-0.00768437
-0.013195
-0.0103868
-0.013789
-0.0131996
-0.0143398
-0.0161364
-0.0149648
-0.019215
-0.0156802
-0.0224527
-0.016482
-0.0173654
-0.0258645
-0.000904434
-0.00375026
-0.00280093
-0.00778151
-0.00518963
-0.00973812
-0.00779641
-0.0105882
-0.010524
-0.0110614
-0.0133618
-0.011502
-0.0163241
-0.0120024
-0.0194288
-0.0125755
-0.0226932
-0.0132176
-0.0139257
-0.0261329
-0.000922075
-0.00282818
-0.00284464
-0.00585895
-0.00525779
-0.00732497
-0.00788605
-0.00795995
-0.0106337
-0.0083137
-0.0134916
-0.00864406
-0.0164744
-0.00901973
-0.0195999
-0.00944993
-0.0228857
-0.00993186
-0.0104638
-0.0263476
-0.000935338
-0.00189284
-0.00287745
-0.00391684
-0.00530892
-0.0048935
-0.00795328
-0.00531559
-0.0107161
-0.00555089
-0.0135891
-0.0057711
-0.0165871
-0.00602169
-0.0197283
-0.00630868
-0.0230301
-0.00663013
-0.00698512
-0.0265087
-0.000944195
-0.00094865
-0.00289934
-0.0019617
-0.00534301
-0.00244983
-0.0079981
-0.0026605
-0.010771
-0.00277799
-0.013654
-0.00288809
-0.0166623
-0.00301342
-0.019814
-0.00315698
-0.0231264
-0.00331775
-0.00349536
-0.0266161
-0.000948628
-2.12042e-08
-0.00291028
-4.15472e-08
-0.00536006
-4.9355e-08
-0.00802051
-5.10506e-08
-0.0107985
-5.06582e-08
-0.0136865
-4.96817e-08
-0.0166999
-4.84135e-08
-0.0198568
-4.68881e-08
-0.0231745
-4.50888e-08
-4.29631e-08
-0.0266698
-0.000948628
0.000948607
-0.00291028
0.00196161
-0.00536006
0.00244973
-0.00802051
0.0026604
-0.0107985
0.00277789
-0.0136865
0.00288799
-0.0166999
0.00301333
-0.0198568
0.00315689
-0.0231745
0.00331766
0.00349527
-0.0266698
-0.000944195
0.0018928
-0.00289934
0.00391675
-0.00534301
0.0048934
-0.0079981
0.00531549
-0.010771
0.00555079
-0.013654
0.005771
-0.0166623
0.00602159
-0.019814
0.00630859
-0.0231264
0.00663004
0.00698503
-0.0266161
-0.000935338
0.00282814
-0.00287745
0.00585886
-0.00530892
0.00732487
-0.00795328
0.00795985
-0.0107161
0.0083136
-0.0135891
0.00864396
-0.0165871
0.00901963
-0.0197283
0.00944984
-0.0230301
0.00993177
0.0104637
-0.0265087
-0.000922074
0.00375021
-0.00284464
0.00778143
-0.00525779
0.00973802
-0.00788605
0.0105881
-0.0106337
0.0110613
-0.0134916
0.0115019
-0.0164744
0.0120023
-0.0195999
0.0125754
-0.0228857
0.0132175
0.0139256
-0.0263476
-0.000904434
0.00465465
-0.00280093
0.00967793
-0.00518962
0.0121267
-0.00779641
0.0131949
-0.010524
0.0137889
-0.0133618
0.0143397
-0.0163241
0.0149647
-0.0194288
0.0156801
-0.0226932
0.0164819
0.0173653
-0.0261329
-0.000882453
0.0055371
-0.00274637
0.0115418
-0.00510445
0.0144848
-0.00768437
0.0157748
-0.0103868
0.0164912
-0.0131996
0.0171525
-0.0161364
0.0179015
-0.019215
0.0187587
-0.0224527
0.0197196
0.020777
-0.0258645
-0.000856182
0.00639328
-0.00268099
0.0133667
-0.00500228
0.0168061
-0.00754993
0.0183225
-0.0102222
0.0191635
-0.013005
0.0199353
-0.0159113
0.0208079
-0.0189587
0.0218061
-0.0221644
0.0229253
0.0241553
-0.0255426
-0.00082568
0.00721896
-0.00260487
0.0151458
-0.00488315
0.0190844
-0.00739311
0.0208324
-0.0100302
0.0218005
-0.0127781
0.0226833
-0.015649
0.0236787
-0.01866
0.0248171
-0.0218284
0.0260938
0.0274944
-0.0251675
-0.000791021
0.00800998
-0.00251808
0.0168729
-0.0047471
0.0213134
-0.00721391
0.0232992
-0.00981085
0.0243975
-0.012519
0.0253914
-0.0153494
0.0265092
-0.018319
0.0277867
-0.021445
0.0292197
0.0307889
-0.0247396
-0.000752293
0.00876228
-0.0024207
0.0185413
-0.00459416
0.0234868
-0.00701236
0.0257174
-0.00956422
0.0269493
-0.0122277
0.0280549
-0.0150129
0.0292943
-0.0179361
0.03071
-0.0210146
0.0322982
0.0340336
-0.0242592
-0.000709598
0.00947187
-0.00231286
0.0201446
-0.0044244
0.0255984
-0.00678849
0.0280815
-0.00929032
0.0294512
-0.0119045
0.0306691
-0.0146395
0.0320293
-0.0175115
0.033582
-0.0205374
0.0353241
0.0372234
-0.0237272
-0.000663056
0.0101349
-0.00219469
0.0216762
-0.00423789
0.0276416
-0.00654231
0.0303859
-0.00898921
0.0318981
-0.0115492
0.0332291
-0.0142294
0.0347094
-0.0170453
0.0363979
-0.0200141
0.0382929
0.0403535
-0.0231443
-0.000612809
0.0107477
-0.00206635
0.0231298
-0.00403472
0.0296099
-0.00627389
0.0326251
-0.00866094
0.0342851
-0.0111622
0.0357304
-0.0137828
0.03733
-0.016538
0.0391531
-0.0194451
0.0412001
0.0434198
-0.0225115
-0.000559016
0.0113068
-0.00192804
0.0244988
-0.00381502
0.0314969
-0.00598327
0.0347934
-0.00830558
0.0366074
-0.0107435
0.0381682
-0.0132998
0.0398864
-0.0159895
0.0418428
-0.018831
0.0440416
0.0464189
-0.02183
-0.000501866
0.0118086
-0.00178
0.0257769
-0.00357895
0.0332959
-0.00567053
0.0368849
-0.00792321
0.0388601
-0.0102932
0.0405382
-0.0127807
0.0423739
-0.0154001
0.0444622
-0.0181718
0.0468133
0.0493485
-0.0211014
-0.000441569
0.0122502
-0.00162251
0.0269579
-0.00332669
0.035
-0.00533578
0.038894
-0.00751391
0.0410382
-0.00981153
0.0428358
-0.0122258
0.0447881
-0.0147696
0.047006
-0.0174675
0.0495112
0.0522084
-0.0203274
-0.000378366
0.0126286
-0.00145591
0.0280354
-0.00305848
0.0366026
-0.00497914
0.0408147
-0.00707777
0.0431369
-0.00929865
0.0450567
-0.0116353
0.0471248
-0.0140977
0.0494684
-0.0167159
0.0521293
0.0550024
-0.0195099
-0.000312528
0.0129411
-0.00128061
0.0290035
-0.00277461
0.0380966
-0.00460079
0.0426409
-0.00661497
0.045151
-0.00875479
0.0471965
-0.0110104
0.0493805
-0.0133865
0.0518444
-0.0159163
0.0546591
0.0577409
-0.0186548
-0.000244366
0.0131855
-0.00109707
0.0298562
-0.00247542
0.039475
-0.00420097
0.0443664
-0.00612565
0.0470757
-0.00817971
0.0492506
-0.0103501
0.0515509
-0.0126331
0.0541274
-0.0150456
0.0570717
0.0604498
-0.0177546
-0.000174262
0.0133597
-0.000905805
0.0305877
-0.00216131
0.0407305
-0.00377999
0.0459851
-0.00561022
0.048906
-0.00757419
0.0512146
-0.0096574
0.0536341
-0.0118608
0.0563308
-0.0141499
0.0593608
0.0631736
-0.0168737
-0.000102818
0.0134625
-0.000707297
0.0311922
-0.00183275
0.0418559
-0.00333821
0.0474906
-0.005069
0.0506367
-0.00693838
0.0530839
-0.00892595
0.0556217
-0.0110436
0.0584484
-0.0133015
0.0616187
0.0653992
-0.0155271
-3.1888e-05
0.0134944
-0.000501642
0.031662
-0.00149035
0.0428446
-0.0028761
0.0488763
-0.00450219
0.0522628
-0.00627285
0.0548546
-0.00815904
0.0575078
-0.0101686
0.060458
-0.0123048
0.0637548
0.0676608
-0.0145663
4.35896e-05
0.0134508
-0.000287606
0.0319932
-0.00113504
0.0436921
-0.00239426
0.0501355
-0.0039103
0.0537789
-0.00557866
0.056523
-0.00736146
0.0592906
-0.00926409
0.0623607
-0.0113054
0.0657961
0.0698199
-0.0134645
0.000119365
0.0133315
-5.64257e-05
0.032169
-0.000768499
0.0444041
-0.00189308
0.0512601
-0.00329408
0.0551799
-0.00485682
0.0580857
-0.0065352
0.060969
-0.00833143
0.0641569
-0.0102645
0.0677292
0.0718616
-0.0123063
0.000189915
0.0131416
0.000150552
0.0322083
-0.000392756
0.0449474
-0.00137318
0.0522405
-0.00265467
0.0564614
-0.00410794
0.059539
-0.00567968
0.0625408
-0.00736738
0.0658446
-0.00918744
0.0695493
0.0737864
-0.0111122
0.000258227
0.0128833
0.000364336
0.0321022
1.55055e-05
0.0452963
-0.00083664
0.0530927
-0.00199282
0.0576175
-0.00333229
0.0608784
-0.00479455
0.064003
-0.00637091
0.0674209
-0.00807509
0.0712535
0.0755966
-0.00988529
0.000325546
0.0125578
0.00058019
0.0318476
0.000385731
0.0454907
-0.000289629
0.053768
-0.0013092
0.0586371
-0.00253056
0.0620998
-0.00388027
0.0653527
-0.00534252
0.0688832
-0.00692741
0.0728384
0.0772872
-0.00861803
0.000390254
0.0121675
0.000796179
0.0314416
0.00078258
0.0455043
0.000273658
0.054277
-0.000605563
0.0595163
-0.00170365
0.0631979
-0.00293759
0.0665867
-0.00428294
0.0702286
-0.00574568
0.0743011
0.0788517
-0.00731024
0.000451538
0.011716
0.00101035
0.0308828
0.00118355
0.0453311
0.00084819
0.0546123
0.00011717
0.0602474
-0.000852446
0.0641675
-0.00196726
0.0677015
-0.00319283
0.0714541
-0.00453134
0.0756396
0.0802861
-0.00596567
0.00050848
0.0112075
0.00121967
0.0301716
0.00158526
0.0449655
0.00143417
0.0547634
0.000858759
0.0608228
1.48153e-05
0.0650114
-0.000970623
0.0686869
-0.00207315
0.0725566
-0.0032857
0.0768522
0.0815879
-0.00458752
0.000560094
0.0106474
0.00142126
0.0293105
0.00198477
0.044402
0.00202728
0.0547209
0.00161765
0.0612324
0.00091836
0.0657107
4.45684e-05
0.0695607
-0.000926163
0.0735274
-0.00200915
0.0779352
0.082757
-0.00317829
0.000605476
0.0100419
0.00161233
0.0283036
0.00237832
0.043636
0.00262417
0.054475
0.00238972
0.0614668
0.00183658
0.0662639
0.00110102
0.0702963
0.000244501
0.0743839
-0.000696528
0.0788762
0.0838053
-0.00174475
0.000643828
0.00939811
0.00179001
0.0271574
0.00276152
0.0426645
0.00322068
0.0540159
0.00317211
0.0615154
0.00277327
0.0666627
0.00217229
0.0708973
0.00145191
0.0751043
0.000636189
0.0796919
0.08475
-0.000308503
0.000674448
0.00872366
0.00195128
0.0258806
0.00312955
0.0414863
0.00381185
0.0533336
0.00396105
0.0613662
0.0037256
0.0668982
0.00326477
0.0713581
0.00267555
0.0756935
0.00199369
0.0803738
0.0855161
0.00122751
0.000696763
0.0080269
0.00209292
0.0244844
0.00347708
0.0401021
0.00439193
0.0524187
0.0047518
0.0610063
0.00469028
0.0669597
0.00437626
0.0716721
0.00392284
0.0761469
0.00338176
0.0809149
0.0861296
0.00276832
0.000710382
0.00731651
0.00221186
0.022983
0.00379831
0.0385157
0.00495423
0.0512628
0.00553861
0.060422
0.00566328
0.066835
0.00550395
0.0718315
0.0051908
0.07646
0.00478901
0.0813166
0.0865988
0.00431981
0.000715123
0.00660139
0.00230534
0.0213928
0.00408705
0.0367339
0.00549106
0.0498588
0.00631449
0.0595985
0.00663943
0.0665101
0.00664406
0.0718268
0.00647539
0.0766287
0.00621319
0.0815788
0.0869254
0.00588656
0.000711013
0.00589038
0.00237094
0.0197328
0.00433681
0.0347681
0.00599368
0.0482019
0.00707109
0.0585211
0.0076123
0.0659689
0.00779212
0.071647
0.00777335
0.0766475
0.00765263
0.0816996
0.0871097
0.00746833
0.000698304
0.00519207
0.00240678
0.0180243
0.00454104
0.0326338
0.00645239
0.0462906
0.00779852
0.057175
0.008574
0.0651934
0.00894281
0.0712782
0.0090814
0.0765089
0.00910525
0.0816757
0.0871512
0.0090638
0.000677474
0.0045146
0.00241166
0.0162902
0.0046934
0.0303521
0.00685659
0.0441274
0.00848528
0.0555463
0.00951488
0.0641638
0.0100895
0.0707036
0.0103954
0.0762029
0.0105683
0.0815028
0.0870484
0.0106711
0.000649233
0.00386537
0.00238533
0.0145541
0.00478823
0.0279492
0.00719507
0.0417205
0.00911812
0.0536232
0.0104232
0.0628587
0.0112236
0.0699032
0.0117101
0.0757165
0.0120384
0.0811745
0.0867992
0.0122876
0.000614491
0.00325088
0.00232855
0.01284
0.00482101
0.0254567
0.00745642
0.0390851
0.00968213
0.0513975
0.0112849
0.0612559
0.0123346
0.0688535
0.0130183
0.0750328
0.013511
0.0806818
0.0863993
0.0139108
0.000574334
0.00267654
0.00224319
0.0111712
0.00478894
0.022911
0.0076296
0.0362445
0.0101609
0.0488662
0.0120832
0.0593336
0.0134089
0.0675278
0.014311
0.0741307
0.0149804
0.0800124
0.0858432
0.0155366
0.00052997
0.00214657
0.00213217
0.00956896
0.0046915
0.0203516
0.00770481
0.0332312
0.010537
0.0460341
0.0127985
0.0570721
0.0144299
0.0658964
0.0155765
0.072984
0.0164394
0.0791496
0.0851225
0.0171601
0.000482676
0.0016639
0.00199936
0.00805228
0.00453084
0.0178202
0.00767451
0.0300875
0.0107927
0.0429159
0.0134088
0.054456
0.015377
0.0639282
0.0167995
0.0715615
0.017878
0.0780711
0.0842253
0.0187752
0.000433737
0.00123016
0.00184933
0.00663669
0.00431205
0.0153574
0.00753468
0.0268649
0.0109112
0.0395394
0.0138895
0.0514776
0.0162257
0.061592
0.0179603
0.069827
0.019283
0.0767484
0.0831344
0.0203738
0.000384385
0.000845775
0.00168707
0.005334
0.00404298
0.0130015
0.00728598
0.0236219
0.0108784
0.035947
0.0142151
0.0481409
0.0169473
0.0588598
0.0190343
0.06774
0.0206369
0.0751458
0.0818262
0.0219451
0.00033575
0.000510024
0.0015177
0.00415205
0.00373381
0.0107854
0.00693468
0.020421
0.0106847
0.0321969
0.0143602
0.0444655
0.017509
0.055711
0.0199908
0.0652582
0.0219164
0.0732202
0.0802683
0.0234743
0.000288819
0.000221205
0.00134612
0.00309475
0.00339624
0.0087353
0.00649305
0.0173242
0.0103276
0.0283623
0.0143019
0.0404912
0.0178755
0.0521374
0.0207927
0.062341
0.0230911
0.0709218
0.0784183
0.0249411
0.000244414
-2.32083e-05
0.00117681
0.00216235
0.00304253
0.00686958
0.00597871
0.014388
0.00981381
0.0245272
0.0140237
0.0362813
0.0180107
0.0481505
0.0213971
0.0589545
0.0241224
0.0681965
0.0762226
0.0263181
0.000203183
-0.000226391
0.00101366
0.00135187
0.00268459
0.00519864
0.00541324
0.0116594
0.00916038
0.0207801
0.0135191
0.0319226
0.0178816
0.043788
0.0217563
0.0550798
0.0249623
0.0649905
0.0736165
0.0275684
0.000165595
-0.000391987
0.000859836
0.00065763
0.00233315
0.00372533
0.00482
0.00917252
0.00839463
0.0172055
0.0127954
0.0275218
0.0174634
0.03912
0.021821
0.0507222
0.0255537
0.0612579
0.0705261
0.0286442
0.00013197
-0.000523957
0.00071778
7.18204e-05
0.00199722
0.00244589
0.00422181
0.00694793
0.00755159