/*--------------------------------*- C++ -*----------------------------------*\
  =========                 |
  \\      /  F ield         | OpenFOAM: The Open Source CFD Toolbox
   \\    /   O peration     | Website:  https://openfoam.org
    \\  /    A nd           | Version:  7
     \\/     M anipulation  |
\*---------------------------------------------------------------------------*/
FoamFile
{
    version     2.0;
    format      ascii;
    class       volScalarField;
    location    "200";
    object      p;
}
// * * * * * * * * * * * * * * * * * * * * * * * * * * * * * * * * * * * * * //

dimensions      [0 2 -2 0 0 0 0];

internalField   nonuniform List<scalar> 
2125
(
-0.361367
-0.403852
-0.368773
-0.444766
-0.410362
-0.376024
-0.500149
-0.477636
-0.449649
-0.416723
-0.383198
-0.513273
-0.499071
-0.479592
-0.45432
-0.422973
-0.390375
-0.518832
-0.509722
-0.497958
-0.481342
-0.458819
-0.429132
-0.397616
-0.520784
-0.513984
-0.506475
-0.496914
-0.482958
-0.463171
-0.435185
-0.404981
-0.515373
-0.509629
-0.503578
-0.49601
-0.484503
-0.467388
-0.441101
-0.412462
-0.515175
-0.510461
-0.505745
-0.50104
-0.495282
-0.486011
-0.47147
-0.446797
-0.42008
-0.514539
-0.509868
-0.505969
-0.502271
-0.498832
-0.494719
-0.487485
-0.475382
-0.452247
-0.427477
-0.508842
-0.504874
-0.501792
-0.49911
-0.496881
-0.494271
-0.48888
-0.479073
-0.457358
-0.43448
-0.503362
-0.500071
-0.497804
-0.496133
-0.495068
-0.493835
-0.490117
-0.482434
-0.462209
-0.439355
-0.497947
-0.49533
-0.493868
-0.493185
-0.493236
-0.493267
-0.491085
-0.485201
-0.467942
-0.436227
-0.492454
-0.490525
-0.489843
-0.490106
-0.491201
-0.492384
-0.491615
-0.487106
-0.473768
-0.437705
-0.486756
-0.485544
-0.485601
-0.486736
-0.488779
-0.490984
-0.491476
-0.488029
-0.478187
-0.441047
-0.480763
-0.480297
-0.481034
-0.48294
-0.485802
-0.488871
-0.490421
-0.487848
-0.480558
-0.443445
-0.47442
-0.474727
-0.476067
-0.478618
-0.482139
-0.48589
-0.488257
-0.486421
-0.480869
-0.444655
-0.46772
-0.468815
-0.470666
-0.473717
-0.477719
-0.481951
-0.484895
-0.483647
-0.479327
-0.445054
-0.460707
-0.462576
-0.464844
-0.468247
-0.472548
-0.477054
-0.48035
-0.479525
-0.476244
-0.444709
-0.453463
-0.456071
-0.458654
-0.462264
-0.466697
-0.471306
-0.474718
-0.474267
-0.471887
-0.443502
-0.446106
-0.449392
-0.45219
-0.455877
-0.460295
-0.464846
-0.468269
-0.468444
-0.465919
-0.441579
-0.438778
-0.442656
-0.445577
-0.449229
-0.453509
-0.457884
-0.461232
-0.461863
-0.459132
-0.440538
-0.431635
-0.435996
-0.438955
-0.44248
-0.446533
-0.450648
-0.453863
-0.454819
-0.452249
-0.438185
-0.424827
-0.429545
-0.432466
-0.435793
-0.439557
-0.443363
-0.446413
-0.44761
-0.445459
-0.434895
-0.418492
-0.423428
-0.426245
-0.429323
-0.432755
-0.436229
-0.439101
-0.440487
-0.438926
-0.43125
-0.41274
-0.417745
-0.420407
-0.423197
-0.426275
-0.429412
-0.432105
-0.433656
-0.432785
-0.427542
-0.407649
-0.41258
-0.415035
-0.417512
-0.420228
-0.423032
-0.425555
-0.427265
-0.42713
-0.423978
-0.403258
-0.407975
-0.410183
-0.412331
-0.414684
-0.417169
-0.419536
-0.421409
-0.42202
-0.420715
-0.399568
-0.403941
-0.405869
-0.407678
-0.409674
-0.411857
-0.414084
-0.416125
-0.417471
-0.41784
-0.396543
-0.400457
-0.402079
-0.403545
-0.405192
-0.40709
-0.409192
-0.411404
-0.413453
-0.415354
-0.394118
-0.397478
-0.398773
-0.399893
-0.401199
-0.402825
-0.40481
-0.407186
-0.40989
-0.413179
-0.392202
-0.394935
-0.395887
-0.39666
-0.397631
-0.398991
-0.400857
-0.403378
-0.406667
-0.411171
-0.015909
-0.0166005
-0.0172659
-0.0179052
-0.0185183
-0.0191051
-0.0196656
-0.0201999
-0.020708
-0.0211902
-0.0216468
-0.016694
-0.0174012
-0.0180813
-0.0187341
-0.0193596
-0.0199577
-0.0205285
-0.0210719
-0.0215881
-0.0220779
-0.0225428
-0.0181484
-0.0188807
-0.0195851
-0.0202614
-0.0209095
-0.0215295
-0.0221214
-0.0226855
-0.0232219
-0.0237325
-0.0242208
-0.0202204
-0.0209905
-0.0217315
-0.0224435
-0.0231264
-0.0237802
-0.0244051
-0.0250014
-0.0255694
-0.0261122
-0.0266365
-0.0228904
-0.0237091
-0.0244976
-0.0252558
-0.0259839
-0.0266819
-0.0273499
-0.0279885
-0.0285984
-0.0291839
-0.0297564
-0.0261378
-0.0270163
-0.0278634
-0.0286789
-0.029463
-0.0302158
-0.0309376
-0.0316291
-0.0322913
-0.0329305
-0.033564
-0.0299627
-0.0309127
-0.0318296
-0.0327135
-0.0335646
-0.0343831
-0.0351692
-0.035924
-0.0366489
-0.0373525
-0.0380601
-0.0343704
-0.0354038
-0.0364024
-0.0373662
-0.0382955
-0.0391907
-0.0400521
-0.0408809
-0.0416794
-0.0424585
-0.0432543
-0.0393752
-0.0405047
-0.0415974
-0.0426533
-0.0436727
-0.0446562
-0.0456042
-0.0465181
-0.0474014
-0.0482677
-0.0491665
-0.0449973
-0.0462365
-0.0474363
-0.048597
-0.0497191
-0.050803
-0.0518495
-0.0528603
-0.0538402
-0.0548058
-0.055824
-0.0512616
-0.0526249
-0.053946
-0.0552253
-0.0564633
-0.0576607
-0.0588184
-0.0599383
-0.0610273
-0.0621054
-0.0632608
-0.0566477
-0.058197
-0.0597003
-0.0611579
-0.0625706
-0.063939
-0.0652637
-0.0665462
-0.0677884
-0.0689998
-0.0702044
-0.0715167
-0.0641265
-0.0658368
-0.067497
-0.0691078
-0.0706698
-0.0721839
-0.0736509
-0.0750727
-0.0764513
-0.0777994
-0.0791456
-0.0806365
-0.0723266
-0.0742169
-0.0760524
-0.0778341
-0.0795626
-0.0812393
-0.0828646
-0.0844415
-0.0859714
-0.0874718
-0.0889758
-0.0906695
-0.0812853
-0.0833761
-0.0854068
-0.0873783
-0.0892918
-0.0911487
-0.0929496
-0.0946984
-0.0963963
-0.0980659
-0.0997456
-0.101669
-0.0910415
-0.0933547
-0.0956017
-0.0977838
-0.099902
-0.101958
-0.103953
-0.105891
-0.107774
-0.109631
-0.111506
-0.113689
-0.101635
-0.104194
-0.106679
-0.109093
-0.111437
-0.113714
-0.115923
-0.11807
-0.120157
-0.12222
-0.124311
-0.126785
-0.113107
-0.115935
-0.118683
-0.121351
-0.123942
-0.126459
-0.128903
-0.131282
-0.133594
-0.135887
-0.138217
-0.141016
-0.125497
-0.12862
-0.131655
-0.134602
-0.137462
-0.140241
-0.142938
-0.145566
-0.148123
-0.15067
-0.153269
-0.156435
-0.138842
-0.142285
-0.145628
-0.148878
-0.152035
-0.155105
-0.158082
-0.160982
-0.1638
-0.166616
-0.169507
-0.173083
-0.153185
-0.156972
-0.160646
-0.164217
-0.167684
-0.171063
-0.174347
-0.177561
-0.180679
-0.183802
-0.187001
-0.191028
-0.168556
-0.172715
-0.17675
-0.180671
-0.184468
-0.188167
-0.191751
-0.195285
-0.198723
-0.202222
-0.20579
-0.21035
-0.184973
-0.189521
-0.193938
-0.198242
-0.202416
-0.206492
-0.210413
-0.214282
-0.217997
-0.221872
-0.225815
-0.231061
-0.202481
-0.207426
-0.21222
-0.216898
-0.221445
-0.225937
-0.230276
-0.234624
-0.238707
-0.243031
-0.247262
-0.253302
-0.221123
-0.226493
-0.23169
-0.236748
-0.241636
-0.246476
-0.251151
-0.255994
-0.260561
-0.26566
-0.270327
-0.277426
-0.240838
-0.246657
-0.252306
-0.257821
-0.263147
-0.268397
-0.273374
-0.278547
-0.28333
-0.289175
-0.29438
-0.303178
-0.261538
-0.267742
-0.273791
-0.279742
-0.285572
-0.291407
-0.297002
-0.302806
-0.307921
-0.314291
-0.319476
-0.330227
-0.283373
-0.289866
-0.296175
-0.302373
-0.308495
-0.314713
-0.320929
-0.327643
-0.333939
-0.341754
-0.347448
-0.360218
-0.30672
-0.313528
-0.320105
-0.326506
-0.332786
-0.339076
-0.345419
-0.352295
-0.359359
-0.368635
-0.376639
-0.392943
-0.331095
-0.338293
-0.345263
-0.352054
-0.358716
-0.365307
-0.371877
-0.378589
-0.385412
-0.393511
-0.40175
-0.419058
-0.0227348
-0.0240741
-0.024962
-0.02535
-0.0251817
-0.0244424
-0.0230988
-0.0211471
-0.0185939
-0.0154053
-0.0116341
-0.0071922
-0.00220657
0.00344392
0.00954341
0.0161599
0.0229851
0.0299724
0.0367793
0.0430621
0.0478621
0.0503744
0.0485447
0.0436422
0.038747
0.0370872
0.0359161
0.0327921
0.0245846
0.012439
-0.0236624
-0.0249999
-0.0258453
-0.0261673
-0.0259218
-0.0251038
-0.023683
-0.0216586
-0.0190422
-0.0158002
-0.0119913
-0.00751634
-0.00250649
0.00317901
0.00932504
0.0160162
0.022941
0.0300656
0.0370844
0.0435765
0.048559
0.0511712
0.0488576
0.04347
0.0383492
0.0369639
0.0358682
0.0332297
0.0252164
0.0127495
-0.0254125
-0.0267481
-0.027509
-0.0277014
-0.0273057
-0.0263349
-0.0247649
-0.0226037
-0.0198694
-0.0165296
-0.012655
-0.00812544
-0.00307595
0.00266703
0.00889873
0.0157228
0.0228312
0.0302084
0.0376324
0.0445191
0.0498815
0.0526865
0.0494049
0.0430799
0.037549
0.036673
0.0357161
0.0340339
0.0263393
0.0132829
-0.0279315
-0.0292567
-0.0298853
-0.0298801
-0.0292592
-0.0280614
-0.0262728
-0.0239103
-0.0210089
-0.0175368
-0.0135813
-0.00898954
-0.0038981
0.00191226
0.00825814
0.0152605
0.0226141
0.0303439
0.0383472
0.0458102
0.0517677
0.0548612
0.050057
0.0423633
0.0363077
0.0361389
0.0353504
0.0351059
0.0278367
0.013917
-0.0311845
-0.0324834
-0.0329224
-0.0326434
-0.0317154
-0.0302098
-0.0281236
-0.0255041
-0.0223934
-0.0187659
-0.0147291
-0.0100854
-0.00496453
0.000908146
0.00738802
0.0145991
0.0222368
0.0304003
0.0391331
0.047356
0.0541467
0.0576219
0.0506334
0.0411812
0.0345671
0.0352395
0.0346597
0.0362938
0.0295526
0.0144927
-0.0351552
-0.0364028
-0.0365826
-0.035941
-0.0346139
-0.0327136
-0.0302582
-0.0273135
-0.023955
-0.020162
-0.0160619
-0.011397
-0.00627604
-0.000361195
0.00626673
0.0137004
0.0216397
0.0302925
0.039874
0.0490296
0.0569194
0.0608413
0.0508871
0.0393688
0.0322491
0.0338194
0.0335489
0.0373714
0.0312374
0.0148041
-0.0398435
-0.0410036
-0.0408382
-0.0397289
-0.037897
-0.0355025
-0.0325903
-0.0292588
-0.0256227
-0.0216706
-0.0175475
-0.012916
-0.00784254
-0.00191906
0.00486862
0.0125227
0.0207613
0.0299231
0.0404309
0.0506617
0.0599325
0.064276
0.0504913
0.0367418
0.029244
0.0317096
0.0319359
0.0380475
0.0323835
0.0146085
-0.0452603
-0.0462836
-0.0456679
-0.0439665
-0.0415069
-0.0385046
-0.03504
-0.0312564
-0.0273224
-0.0232369
-0.0191585
-0.014642
-0.00968364
-0.00379457
0.0031656
0.0110242
0.0195441
0.0291855
0.0406356
0.0520224
0.0629557
0.0674828
0.0490394
0.0330958
0.0254222
0.0287546
0.0297408
0.0379876
0.0326827
0.0136669
-0.0514268
-0.0522486
-0.0510546
-0.0486136
-0.0453842
-0.0416442
-0.0375205
-0.0332161
-0.0289757
-0.0248064
-0.0208741
-0.0165843
-0.01183
-0.00602112
0.0011281
0.00916756
0.0179396
0.0279702
0.040296
0.0527725
0.0656233
0.0697255
0.0460838
0.028226
0.0206758
0.0248386
0.026896
0.0369653
0.0318495
0.0118121
-0.0583726
-0.0589104
-0.0569839
-0.05363
-0.0494669
-0.0448412
-0.0399378
-0.0350385
-0.0304998
-0.0263247
-0.0226808
-0.0187641
-0.0143246
-0.00863512
-0.00127484
0.00692555
0.0159133
0.0261808
0.0392085
0.0524387
0.0672724
0.0699319
0.0412956
0.0220079
0.0167247
0.0199089
0.0233672
0.0349214
0.0297456
0.00907186
-0.0661345
-0.0662856
-0.0634428
-0.0589741
-0.0536891
-0.0480085
-0.0421935
-0.0366144
-0.0318075
-0.0277386
-0.0245752
-0.0212177
-0.0172239
-0.0116764
-0.00407508
0.00428607
0.0134495
0.0237533
0.0372027
0.0504267
0.0666887
0.0667572
0.0347711
0.0144391
0.0101113
0.0138471
0.0191644
0.0318868
0.0264605
0.00566927
-0.074756
-0.0743945
-0.0704185
-0.0646024
-0.0579807
-0.0510522
-0.0441887
-0.0379886
-0.0328085
-0.0289961
-0.026566
-0.0240007
-0.0205988
-0.0151901
-0.00730519
0.00125522
0.0105554
0.0206777
0.0341947
0.0461795
0.0621095
0.0588846
0.0269741
0.00602237
0.00264479
0.00676366
0.014352
0.0279713
0.022274
0.00193112
-0.0842857
-0.0832605
-0.0778991
-0.0704704
-0.0622675
-0.0538642
-0.0457662
-0.0387337
-0.0333702
-0.0300458
-0.028677
-0.027192
-0.0245351
-0.019229
-0.0109967
-0.00214663
0.00725887
0.0170175
0.0302366
0.0394957
0.0521519
0.0459419
0.0183079
-0.00253617
-0.00589992
-0.00111916
0.00905808
0.0233605
0.0175443
-0.00181527
-0.0947772
-0.0929097
-0.0858732
-0.0765344
-0.0664752
-0.0563363
-0.0468063
-0.0388933
-0.0334295
-0.0308486
-0.030953
-0.0308978
-0.0291343
-0.0238548
-0.0151769
-0.00589559
0.00360389
0.012903
0.0255206
0.0307318
0.0379497
0.0293549
0.00887557
-0.0106675
-0.0139561
-0.00946482
0.00346641
0.0182518
0.0126083
-0.00530889
-0.106288
-0.10337
-0.0943308
-0.0827536
-0.0705296
-0.0583574
-0.0471767
-0.0383153
-0.0328277
-0.0313695
-0.0334645
-0.0352548
-0.0345133
-0.0291382
-0.0198677
-0.00997314
-0.000352573
0.00848882
0.0202685
0.0206651
0.0211739
0.0119949
-0.00103692
-0.0181279
-0.0217793
-0.0179433
-0.0022442
0.0128232
0.00773897
-0.00837437
-0.11888
-0.114673
-0.103264
-0.0890923
-0.0743595
-0.0598141
-0.0467412
-0.0368532
-0.0314851
-0.0315898
-0.0363142
-0.0404342
-0.040804
-0.0351558
-0.0250849
-0.0143666
-0.00454067
0.00392629
0.0147295
0.0105125
0.00250845
-0.00339725
-0.0106838
-0.0247725
-0.0290865
-0.0262305
-0.00792058
0.00723328
0.00313891
-0.0109182
-0.132617
-0.126851
-0.112672
-0.0955247
-0.0778989
-0.0605936
-0.0453638
-0.0343608
-0.0292913
-0.0314984
-0.0396488
-0.0466453
-0.0481535
-0.0419864
-0.0308398
-0.0190653
-0.00887468
-0.000652196
0.00916838
0.00155169
-0.00925448
-0.0154261
-0.0192755
-0.030478
-0.0356459
-0.0340396
-0.0134324
0.00162726
-0.00105787
-0.0129127
-0.147565
-0.139937
-0.122558
-0.102039
-0.0810888
-0.0605884
-0.0429156
-0.0306944
-0.0261447
-0.0311447
-0.0436589
-0.0541393
-0.0567217
-0.0497071
-0.0371398
-0.0240537
-0.0132664
-0.00514173
0.00380614
-0.00576341
-0.0181018
-0.0241409
-0.0263748
-0.0351975
-0.0413181
-0.0411509
-0.018674
-0.00386806
-0.00477946
-0.0143767
-0.163793
-0.153967
-0.132941
-0.108642
-0.0838778
-0.0597011
-0.0392808
-0.0257149
-0.0219585
-0.0305677
-0.0485744
-0.0632093
-0.0666792
-0.0583896
-0.043988
-0.0293093
-0.0176447
-0.00946373
-0.00120865
-0.0114034
-0.0244109
-0.0300931
-0.031913
-0.0389878
-0.0460553
-0.0474226
-0.0235709
-0.00915083
-0.00800168
-0.0153578
-0.181366
-0.168977
-0.143855
-0.115372
-0.0862237
-0.05785
-0.0343632
-0.0192943
-0.0166568
-0.0298344
-0.0546662
-0.074195
-0.0782007
-0.0680979
-0.0513814
-0.0348038
-0.0219615
-0.0135682
-0.00580107
-0.0155475
-0.0286564
-0.0339887
-0.0360594
-0.0419772
-0.0498835
-0.0527814
-0.0280779
-0.0141466
-0.0107336
-0.0159184
-0.200336
-0.185004
-0.155362
-0.1223
-0.0884002
-0.0549864
-0.0280951
-0.0113197
-0.0101804
-0.0290492
-0.0623364
-0.0874346
-0.0914464
-0.0788824
-0.0593086
-0.0405052
-0.0261872
-0.0174354
-0.00995355
-0.0184493
-0.031397
-0.0364854
-0.039097
-0.0443182
-0.0528862
-0.0572116
-0.0321754
-0.0188049
-0.0130061
-0.016127
-0.220749
-0.202064
-0.167566
-0.129461
-0.089854
-0.051065
-0.0204531
-0.00170942
-0.00247424
-0.0283241
-0.07194
-0.10316
-0.106526
-0.09077
-0.0677468
-0.0463781
-0.0303038
-0.0210699
-0.0136884
-0.0203885
-0.0331356
-0.0380957
-0.0413249
-0.0461592
-0.0551812
-0.0607443
-0.0358642
-0.0230949
-0.0148632
-0.0160509
-0.242618
-0.220246
-0.180575
-0.136978
-0.090952
-0.0461714
-0.0114979
0.00953948
0.00652795
-0.0276499
-0.0834365
-0.121389
-0.123447
-0.103744
-0.0766557
-0.0523827
-0.0343026
-0.0244902
-0.0170542
-0.0216207
-0.0342585
-0.0391932
-0.0429984
-0.0476266
-0.0568965
-0.0634426
-0.0391597
-0.027001
-0.0163551
-0.015753
-0.265857
-0.239538
-0.194552
-0.145009
-0.0918179
-0.0405295
-0.00145493
0.0222451
0.0168364
-0.0268433
-0.096514
-0.141768
-0.142044
-0.117718
-0.0859699
-0.0584744
-0.0381799
-0.0277186
-0.0201132
-0.0223509
-0.0350433
-0.0400468
-0.0443193
-0.0488143
-0.0581514
-0.0653866
-0.042087
-0.0305196
-0.0175338
-0.0152893
-0.290325
-0.259957
-0.209703
-0.15375
-0.0926775
-0.0344102
0.00921487
0.0359046
0.028199
-0.0256491
-0.110451
-0.163487
-0.161916
-0.132505
-0.0955916
-0.0646032
-0.0419332
-0.0307768
-0.0229313
-0.0227427
-0.0356869
-0.040841
-0.0454524
-0.0497907
-0.0590384
-0.0666627
-0.0446765
-0.0336557
-0.0184508
-0.0147084
-0.315678
-0.281492
-0.226233
-0.163447
-0.0939322
-0.0286745
0.0197551
0.0496077
0.0398882
-0.023996
-0.124269
-0.185358
-0.182435
-0.147811
-0.105387
-0.0707128
-0.0455599
-0.0336849
-0.0255738
-0.0229262
-0.0363174
-0.0416703
-0.046523
-0.0506331
-0.0596242
-0.0673543
-0.0469606
-0.0364205
-0.0191557
-0.0140514
-0.341273
-0.30402
-0.244289
-0.174375
-0.0961688
-0.0241137
0.0291011
0.0620081
0.05075
-0.0221283
-0.137124
-0.206105
-0.202854
-0.163255
-0.115192
-0.076738
-0.0490557
-0.0364608
-0.0281009
-0.0230051
-0.0370292
-0.0425027
-0.0475746
-0.0514327
-0.0600083
-0.0675411
-0.0489704
-0.0388289
-0.0196943
-0.0133515
-0.366725
-0.327348
-0.263944
-0.186844
-0.100123
-0.0218099
0.0358113
0.0714897
0.0595643
-0.0204901
-0.148735
-0.224696
-0.22245
-0.178401
-0.12484
-0.0826242
-0.0524177
-0.0391227
-0.0305618
-0.0230567
-0.0378915
-0.0431988
-0.0485553
-0.0522253
-0.0603597
-0.0673221
-0.0507421
-0.0409024
-0.0201084
-0.0126298
-0.392176
-0.351258
-0.285184
-0.201245
-0.106633
-0.022774
0.038383
0.0766316
0.0647804
-0.0205359
-0.15977
-0.241133
-0.240818
-0.192881
-0.134098
-0.0882823
-0.0556397
-0.0416854
-0.033021
-0.0231167
-0.0387642
-0.0438014
-0.0494603
-0.0529315
-0.0606868
-0.0667997
-0.0523383
-0.0426569
-0.020435
-0.011888
-0.416988
-0.374416
-0.307055
-0.217304
-0.116053
-0.027657
0.036363
0.0757745
0.0618667
-0.0269833
-0.17116
-0.263632
-0.257493
-0.206733
-0.143265
-0.0939012
-0.0587131
-0.0441628
-0.0355685
-0.0233347
-0.0399854
-0.045353
-0.050596
-0.0534318
-0.0604135
-0.0658433
-0.053686
-0.044164
-0.0207098
-0.0111809
-0.435052
-0.387352
-0.320072
-0.228335
-0.125246
-0.0367431
0.0255367
0.0646259
0.0472861
-0.0399765
-0.177755
-0.266224
-0.264658
-0.214948
-0.149634
-0.0987099
-0.0619155
-0.0460625
-0.0380327
-0.0251958
-0.0435345
-0.0493012
-0.0521238
-0.0536505
-0.0588698
-0.0642161
-0.0540899
-0.0450249
-0.0209311
-0.0108982
-0.440262
-0.391924
-0.322327
-0.226437
-0.122133
-0.0358091
0.0240159
0.0570924
0.0343863
-0.0551846
-0.191456
-0.277126
-0.272895
-0.220233
-0.152403
-0.100453
-0.0631924
-0.0472599
-0.0395211
-0.0260389
-0.0441278
-0.0512159
-0.0529384
-0.0540041
-0.0582345
-0.0637772
-0.0545394
-0.0458121
-0.0209212
-0.0106078
-0.443556
-0.393481
-0.321371
-0.22221
-0.11856
-0.0365779
0.0181399
0.0456487
0.0178072
-0.0717073
-0.204633
-0.286874
-0.279984
-0.223298
-0.15273
-0.100153
-0.0633084
-0.0480594
-0.0403925
-0.0265855
-0.0443587
-0.0529532
-0.0537287
-0.0543426
-0.0576787
-0.0635402
-0.0550409
-0.0466229
-0.020755
-0.0102274
-0.446679
-0.395182
-0.321736
-0.221119
-0.119855
-0.042899
0.00578974
0.029521
-0.0011225
-0.0883574
-0.216424
-0.294925
-0.28558
-0.225862
-0.152993
-0.0999285
-0.0635269
-0.048923
-0.0412483
-0.0273855
-0.045031
-0.0547401
-0.0545135
-0.0546381
-0.0570797
-0.063167
-0.0555006
-0.0473939
-0.0205406
-0.00979545
-0.448797
-0.396333
-0.322567
-0.22224
-0.125143
-0.0540275
-0.0101887
0.00938824
-0.0218108
-0.104941
-0.227008
-0.301794
-0.290134
-0.228186
-0.153488
-0.100127
-0.0640629
-0.0499647
-0.0423064
-0.0285581
-0.0460763
-0.0565686
-0.0552878
-0.0548932
-0.0564537
-0.0626722
-0.0559069
-0.0481104
-0.0203085
-0.00932257
-0.449768
-0.396761
-0.323728
-0.225705
-0.135208
-0.0692855
-0.0269118
-0.0139168
-0.0436603
-0.121133
-0.236205
-0.307227
-0.293672
-0.230013
-0.153843
-0.100434
-0.0647372
-0.0511334
-0.0435509
-0.0300601
-0.0476352
-0.0584483
-0.0560526
-0.0551105
-0.0558116
-0.0621025
-0.0562712
-0.0487785
-0.0200524
-0.00881055
-0.449598
-0.396617
-0.325718
-0.232378
-0.14876
-0.0890614
-0.0486424
-0.0395227
-0.0660102
-0.136608
-0.243845
-0.311061
-0.296099
-0.231225
-0.153901
-0.100703
-0.0654631
-0.0523997
-0.0449724
-0.0318861
-0.0493258
-0.0603789
-0.0568082
-0.0552919
-0.0551589
-0.0614712
-0.056599
-0.0494021
-0.0197668
-0.00826295
-0.448339
-0.396264
-0.328806
-0.241704
-0.166524
-0.112734
-0.0742142
-0.0664461
-0.088225
-0.151055
-0.249796
-0.313223
-0.297362
-0.23181
-0.153683
-0.100959
-0.0662527
-0.0537731
-0.0466103
-0.0340661
-0.0512337
-0.0623535
-0.0575541
-0.0554393
-0.0545003
-0.0607815
-0.0568915
-0.0499815
-0.0194543
-0.00768501
-0.445984
-0.396025
-0.333134
-0.254172
-0.188409
-0.139923
-0.102505
-0.0937394
-0.109738
-0.164191
-0.25397
-0.313672
-0.297444
-0.231761
-0.153211
-0.101238
-0.0671279
-0.0552731
-0.0485164
-0.0366264
-0.0533494
-0.0643642
-0.0582894
-0.0555547
-0.0538402
-0.0600379
-0.0571498
-0.0505168
-0.0191203
-0.00708238
-0.441805
-0.396015
-0.339158
-0.269872
-0.214042
-0.170391
-0.132578
-0.120598
-0.13008
-0.175783
-0.256332
-0.312389
-0.29633
-0.231052
-0.152477
-0.101543
-0.068095
-0.0569169
-0.0507331
-0.0395843
-0.0556593
-0.0664014
-0.0590131
-0.0556401
-0.053183
-0.059247
-0.0573752
-0.0510085
-0.0187702
-0.00646087
-0.43749
-0.39653
-0.347088
-0.288681
-0.242978
-0.203991
-0.163664
-0.146402
-0.148883
-0.185652
-0.256905
-0.309373
-0.294011
-0.229656
-0.151464
-0.101867
-0.0691535
-0.0587211
-0.0532923
-0.0429509
-0.0581441
-0.068453
-0.059724
-0.0556974
-0.0525326
-0.0584157
-0.0575696
-0.0514581
-0.0184087
-0.00582667
-0.433274
-0.397904
-0.357053
-0.310338
-0.274548
-0.23871
-0.195187
-0.170743
-0.16588
-0.193687
-0.255765
-0.304657
-0.290482
-0.227547
-0.150161
-0.102198
-0.0703034
-0.0607039
-0.0562179
-0.046731
-0.0607797
-0.0705058
-0.0604207
-0.0557288
-0.0518931
-0.0575513
-0.0577346
-0.051867
-0.0180406
-0.00518624
-0.429343
-0.400359
-0.369069
-0.334451
-0.30795
-0.272168
-0.226531
-0.193409
-0.180905
-0.199839
-0.253024
-0.298303
-0.285751
-0.224703
-0.148557
-0.102528
-0.0715454
-0.0628836
-0.0595271
-0.0509202
-0.0635396
-0.0725457
-0.0611019
-0.0557362
-0.0512681
-0.0566609
-0.0578719
-0.0522369
-0.0176706
-0.00454634
-0.425988
-0.404031
-0.383001
-0.360502
-0.342584
-0.306902
-0.257025
-0.2143
-0.193883
-0.204124
-0.248818
-0.290399
-0.279833
-0.221107
-0.146643
-0.102844
-0.0728791
-0.0652771
-0.0632286
-0.0555037
-0.0663963
-0.0745584
-0.061766
-0.0557217
-0.0506611
-0.0557521
-0.0579833
-0.0525698
-0.0173034
-0.0039138
-0.423438
-0.408949
-0.39856
-0.387871
-0.377838
-0.341763
-0.285856
-0.233366
-0.204817
-0.206616
-0.24329
-0.281063
-0.272753
-0.216742
-0.144408
-0.103131
-0.0743021
-0.0678975
-0.0673227
-0.0604567
-0.0693229
-0.0765299
-0.0624114
-0.0556873
-0.0500754
-0.0548323
-0.0580708
-0.0528675
-0.0169433
-0.00329519
-0.421814
-0.415012
-0.415324
-0.415873
-0.41303
-0.375886
-0.312964
-0.250597
-0.213769
-0.207435
-0.236577
-0.27043
-0.264541
-0.211598
-0.141844
-0.103373
-0.0758095
-0.0707522
-0.0718009
-0.0657453
-0.0722939
-0.0784465
-0.0630363
-0.055635
-0.049514
-0.053909
-0.0581362
-0.0531323
-0.0165946
-0.00269683
-0.421122
-0.421995
-0.432763
-0.443794
-0.447436
-0.408738
-0.338239
-0.266026
-0.220854
-0.20674
-0.228806
-0.258656
-0.255231
-0.205667
-0.138943
-0.10355
-0.0773938
-0.073841
-0.0766471
-0.071327
-0.0752858
-0.080296
-0.0636388
-0.0555665
-0.0489798
-0.0529897
-0.0581814
-0.0533664
-0.016261
-0.00212461
-0.421263
-0.429584
-0.450295
-0.470918
-0.480348
-0.439791
-0.361623
-0.279721
-0.226225
-0.204719
-0.220094
-0.245921
-0.244865
-0.198949
-0.135698
-0.103641
-0.0790443
-0.0771551
-0.0818374
-0.0771534
-0.0782771
-0.0820668
-0.0642168
-0.0554836
-0.0484753
-0.0520815
-0.0582084
-0.0535721
-0.0159459
-0.00158404
-0.422023
-0.43734
-0.467246
-0.496539
-0.511187
-0.468585
-0.383063
-0.291767
-0.230069
-0.201579
-0.21056
-0.232428
-0.233493
-0.191448
-0.132105
-0.103623
-0.0807466
-0.0806763
-0.0873399
-0.0831719
-0.0812489
-0.083749
-0.0647681
-0.0553877
-0.0480032
-0.0511914
-0.058219
-0.0537515
-0.0156522
-0.00108022
-0.423103
-0.444769
-0.482941
-0.519995
-0.539285
-0.494977
-0.402444
-0.302246
-0.232594
-0.197535
-0.200331
-0.21839
-0.221183
-0.183177
-0.128162
-0.103471
-0.0824823
-0.0843769
-0.0931155
-0.0893275
-0.084184
-0.0853341
-0.0652902
-0.0552801
-0.0475659
-0.0503257
-0.058215
)
;

boundaryField
{
    inlet
    {
        type            zeroGradient;
    }
    outlet
    {
        type            fixedValue;
        value           uniform 0;
    }
    cylinder
    {
        type            zeroGradient;
    }
    top
    {
        type            symmetryPlane;
    }
    bottom
    {
        type            symmetryPlane;
    }
    defaultFaces
    {
        type            empty;
    }
    procBoundary1to0
    {
        type            processor;
        value           nonuniform List<scalar> 
50
(
-0.353724
-0.397133
-0.397133
-0.439624
-0.439624
-0.501061
-0.475392
-0.475392
-0.517051
-0.517051
-0.524161
-0.524161
-0.526743
-0.526743
-0.527129
-0.5209
-0.5209
-0.520595
-0.520595
-0.0151916
-0.0159599
-0.0173881
-0.0194214
-0.0220416
-0.0252278
-0.0289797
-0.0333021
-0.0382085
-0.0437184
-0.0498557
-0.0498557
-0.0550519
-0.0623656
-0.0703807
-0.0791333
-0.0886608
-0.0990018
-0.110195
-0.122281
-0.135298
-0.149284
-0.164272
-0.180291
-0.197384
-0.215583
-0.234849
-0.255154
-0.276657
-0.29964
-0.32362
)
;
    }
    procBoundary1to3
    {
        type            processor;
        value           nonuniform List<scalar> 
41
(
-0.39069
-0.392747
-0.393346
-0.393771
-0.394406
-0.395497
-0.397228
-0.399854
-0.403641
-0.409139
-0.424173
-0.451395
-0.496802
-0.541142
-0.563724
-0.51859
-0.419637
-0.311225
-0.23401
-0.192805
-0.189563
-0.204022
-0.20801
-0.174157
-0.12387
-0.103161
-0.0842289
-0.08822
-0.0991169
-0.095566
-0.0870672
-0.0868147
-0.0657803
-0.0551616
-0.0471657
-0.0494904
-0.0581982
-0.0539065
-0.0153826
-0.000617668
-0.0539065
)
;
    }
}


// ************************************************************************* //
