/*--------------------------------*- C++ -*----------------------------------*\
  =========                 |
  \\      /  F ield         | OpenFOAM: The Open Source CFD Toolbox
   \\    /   O peration     | Website:  https://openfoam.org
    \\  /    A nd           | Version:  7
     \\/     M anipulation  |
\*---------------------------------------------------------------------------*/
FoamFile
{
    version     2.0;
    format      ascii;
    class       volVectorField;
    location    "385";
    object      U;
}
// * * * * * * * * * * * * * * * * * * * * * * * * * * * * * * * * * * * * * //

dimensions      [0 1 -1 0 0 0 0];

internalField   nonuniform List<vector> 
2125
(
(-0.0016512 -0.0426165 1.0418e-21)
(-0.0114599 -0.077067 -2.99714e-21)
(-0.0304509 -0.0798501 -3.50044e-21)
(-0.0529423 -0.0642454 3.48308e-21)
(-0.077166 -0.0400898 -3.19878e-21)
(-0.101849 -0.0127565 -1.70746e-21)
(-0.126012 0.0162826 2.92488e-21)
(-0.149035 0.0478153 3.58353e-21)
(-0.170402 0.0833558 -5.75218e-22)
(-0.190178 0.124963 1.72871e-21)
(-0.000274138 -0.0384033 -1.15495e-21)
(-0.00897198 -0.0679747 3.56431e-21)
(-0.0275801 -0.0681175 -8.11939e-21)
(-0.0499279 -0.0512401 7.35776e-21)
(-0.0739692 -0.0266733 3.73042e-22)
(-0.0983173 0.000485863 5.48428e-21)
(-0.121966 0.0289167 -9.46846e-21)
(-0.144297 0.0595682 -1.37903e-20)
(-0.164651 0.0941319 -2.59158e-21)
(-0.182697 0.134781 5.88021e-21)
(0.000849277 -0.0341985 9.87777e-22)
(-0.00686237 -0.0590565 7.47635e-21)
(-0.0248873 -0.0567788 1.77631e-20)
(-0.0467133 -0.038824 -1.60654e-20)
(-0.0700359 -0.013984 -3.5161e-21)
(-0.0933472 0.0129062 -3.27768e-21)
(-0.115586 0.0406339 1.65268e-20)
(-0.136102 0.0702638 1.04725e-20)
(-0.154085 0.103647 2.67057e-21)
(-0.168469 0.142955 -1.80484e-20)
(0.00171976 -0.0301123 3.47285e-21)
(-0.00515862 -0.0505139 -4.44512e-21)
(-0.0224688 -0.0460743 -3.22651e-20)
(-0.0434755 -0.0272656 2.94772e-21)
(-0.0656321 -0.00231936 8.89657e-21)
(-0.0873003 0.0241757 -6.72681e-21)
(-0.10734 0.0510727 -7.1814e-22)
(-0.125044 0.0794966 -2.62533e-21)
(-0.139513 0.111444 6.15298e-21)
(-0.148551 0.149003 1.71461e-20)
(0.00234557 -0.0262256 2.34962e-21)
(-0.00388028 -0.0424979 -1.34771e-20)
(-0.0204204 -0.0361928 3.276e-20)
(-0.0404025 -0.016789 -1.4602e-20)
(-0.0610497 0.00805665 -1.07024e-22)
(-0.0805858 0.0339915 2.00235e-20)
(-0.0977754 0.0598941 -9.31907e-21)
(-0.111826 0.0868919 1.15194e-21)
(-0.121897 0.11711 -3.75451e-21)
(-0.124203 0.152518 8.48827e-22)
(0.00273799 -0.0225876 2.79503e-20)
(-0.00304308 -0.0351039 3.42668e-20)
(-0.0188356 -0.0272648 -8.92583e-21)
(-0.0376838 -0.00756537 1.6793e-20)
(-0.0565912 0.0169252 5.01673e-21)
(-0.0736376 0.0420871 -7.55043e-21)
(-0.0874819 0.0667933 -2.80788e-21)
(-0.0972154 0.0921149 -1.1534e-20)
(-0.10228 0.120279 2.48599e-21)
(-0.0968255 0.153237 -1.48352e-20)
(0.00290684 -0.019215 -2.68775e-20)
(-0.00266279 -0.0283708 -1.77465e-20)
(-0.0178029 -0.0193583 1.40821e-20)
(-0.0354998 0.000295876 -2.41885e-20)
(-0.0525492 0.0241244 2.45261e-21)
(-0.066885 0.0482472 2.77219e-20)
(-0.0770585 0.0715115 -4.91899e-21)
(-0.081992 0.0948746 3.17551e-20)
(-0.0816602 0.120597 -1.05385e-21)
(-0.06787 0.151093 -1.20668e-20)
(0.00285666 -0.0160951 2.17242e-20)
(-0.00275773 -0.0222845 -3.94831e-20)
(-0.0174009 -0.0124792 -1.56374e-20)
(-0.034007 0.00675204 1.86843e-20)
(-0.049181 0.0295614 2.90428e-22)
(-0.0607147 0.0523249 -5.15282e-20)
(-0.0670615 0.0738551 -2.68139e-21)
(-0.066909 0.094936 -2.43964e-20)
(-0.0608321 0.117638 -3.06306e-20)
(-0.0385672 0.145852 1.74031e-20)
(0.00258433 -0.0131915 -1.21146e-20)
(-0.00334893 -0.0167864 5.94143e-21)
(-0.0176909 -0.00657624 1.43694e-20)
(-0.0333202 0.0118296 -1.22189e-20)
(-0.0466771 0.0332233 -4.37539e-20)
(-0.0554226 0.0542629 1.51686e-20)
(-0.0579383 0.0737301 2.34804e-21)
(-0.0526725 0.092207 3.57993e-20)
(-0.0404927 0.111301 4.54712e-20)
(-0.00960072 0.136734 -1.99828e-20)
(0.0020786 -0.0104512 1.84398e-20)
(-0.00445721 -0.0117852 1.67709e-20)
(-0.0187063 -0.00154918 -2.45379e-21)
(-0.0334914 0.0156218 6.18563e-20)
(-0.0451233 0.0351841 2.6178e-20)
(-0.0511502 0.0541108 1.93431e-20)
(-0.0499007 0.0711662 2.64449e-20)
(-0.0396465 0.0867263 -1.18254e-20)
(-0.0213994 0.101819 -1.50177e-20)
(0.0186648 0.123164 -2.29343e-20)
(0.00132201 -0.00781538 -2.05526e-21)
(-0.00609667 -0.00717229 -2.61857e-20)
(-0.0204399 0.00273741 -1.8763e-20)
(-0.0344863 0.018282 -3.01398e-20)
(-0.0444612 0.0356066 -2.35044e-20)
(-0.0478222 0.0520349 2.33107e-20)
(-0.0428407 0.0663246 -2.18338e-20)
(-0.0276373 0.0787194 -1.48217e-20)
(-0.00352043 0.0894858 1.85605e-21)
(0.0465776 0.105517 6.48038e-21)
(0.000295405 -0.00522911 -4.94384e-20)
(-0.00826499 -0.00283875 2.38001e-20)
(-0.0228282 0.00643786 1.73259e-20)
(-0.0361602 0.0200102 1.13604e-20)
(-0.0444488 0.0347363 -2.03574e-20)
(-0.0450868 0.0483283 -1.70505e-20)
(-0.0362371 0.0595983 2.41738e-20)
(-0.0158298 0.0686703 -1.90559e-20)
(0.0142718 0.0747762 -1.28349e-21)
(0.0760683 0.0847326 -1.81283e-20)
(-0.00101505 -0.00265266 4.07231e-20)
(-0.0109312 0.00130692 1.65138e-20)
(-0.0257366 0.0097062 1.0353e-21)
(-0.0382381 0.0210346 -2.07364e-20)
(-0.0446241 0.0328857 1.71781e-21)
(-0.0422234 0.0434052 2.19015e-20)
(-0.0290496 0.051542 -6.00784e-21)
(-0.00266955 0.0573124 -6.92256e-21)
(0.0342938 0.0585977 -1.51343e-20)
(0.110842 0.0625144 2.78134e-20)
(-0.00261188 -6.66976e-05 2.67754e-20)
(-0.014024 0.00532345 -4.42565e-20)
(-0.0289491 0.0126759 -3.38539e-20)
(-0.0403037 0.0215865 1.47152e-20)
(-0.0442974 0.0304026 2.96149e-20)
(-0.0381551 0.0377451 2.42002e-20)
(-0.0196481 0.0427846 -2.52015e-20)
(0.0141941 0.0455826 4.74069e-20)
(0.0600372 0.0421363 -1.38119e-20)
(0.155794 0.0414828 -3.14525e-20)
(-0.00447789 0.00251571 -4.07451e-20)
(-0.0174243 0.00922255 2.45924e-20)
(-0.0321649 0.01544 -1.14048e-20)
(-0.0418065 0.0218727 1.18734e-21)
(-0.0425709 0.027632 1.21642e-20)
(-0.0314958 0.0318522 -3.8427e-20)
(-0.00595497 0.0340204 3.28816e-20)
(0.0376684 0.0344347 -3.13833e-20)
(0.0957957 0.0266398 4.81976e-20)
(0.215541 0.0246645 1.67404e-20)
(-0.00656729 0.00504879 8.36428e-21)
(-0.0209579 0.0129636 4.70426e-20)
(-0.0350061 0.0180356 -1.16172e-20)
(-0.0420869 0.0220471 1.18525e-20)
(-0.0383948 0.0248735 1.33497e-20)
(-0.020664 0.0261938 -3.95594e-21)
(0.0143151 0.0259107 2.80572e-20)
(0.070716 0.0246881 1.65255e-21)
(0.145841 0.0133281 -3.0267e-20)
(0.292337 0.0145068 3.95584e-20)
(-0.00880803 0.00746078 -2.2618e-20)
(-0.0244016 0.0164532 -4.43616e-20)
(-0.0370363 0.0204335 3.84727e-20)
(-0.0404208 0.0221874 1.90645e-20)
(-0.0306541 0.0223391 -8.77057e-20)
(-0.00405588 0.0211482 7.03533e-20)
(0.0433366 0.0190035 -6.17717e-20)
(0.11579 0.0169078 1.07699e-21)
(0.213394 0.00350842 -1.28684e-20)
(0.384313 0.0121321 -3.61868e-20)
(-0.0111016 0.00965862 1.93648e-20)
(-0.027492 0.0195528 -2.55058e-21)
(-0.0377881 0.0225377 -9.43316e-21)
(-0.0360782 0.0222841 -1.20328e-21)
(-0.0182799 0.0201444 -5.46893e-21)
(0.01978 0.0169587 -2.23546e-20)
(0.0828602 0.0136894 9.08656e-21)
(0.174467 0.0113528 -1.43498e-20)
(0.299657 -0.00123427 4.42588e-21)
(0.485218 0.0174279 1.1646e-21)
(-0.0133295 0.0115406 -3.95165e-20)
(-0.0299405 0.0220951 -2.78765e-21)
(-0.0367897 0.0241976 4.30736e-21)
(-0.0283668 0.0222487 1.75842e-21)
(-0.000342384 0.0182927 2.86262e-20)
(0.0519781 0.0137297 -8.21908e-20)
(0.133985 0.0101958 5.39242e-20)
(0.247405 0.0080631 -3.96625e-20)
(0.403182 0.00073335 3.18714e-20)
(0.586826 0.0286884 3.35829e-20)
(-0.0153627 0.0130106 -4.79189e-21)
(-0.0314485 0.0239058 2.20806e-20)
(-0.0335893 0.0252314 -2.76581e-20)
(-0.0166743 0.0219342 -8.64543e-21)
(0.02391 0.0166992 1.65366e-20)
(0.0932747 0.0114761 7.81708e-20)
(0.196992 0.00860872 -1.52263e-20)
(0.334271 0.00719644 7.33195e-21)
(0.519405 0.00995487 -3.74707e-20)
(0.684834 0.0395828 1.66996e-20)
(-0.017072 0.0139916 -1.44286e-20)
(-0.0317198 0.024829 -1.12568e-20)
(-0.0277659 0.0254619 2.79849e-21)
(-0.000476041 0.0211811 1.08603e-20)
(0.0550281 0.0152635 -3.20189e-20)
(0.144016 0.0101918 -1.28249e-20)
(0.271344 0.00895997 -3.95846e-20)
(0.433212 0.00941051 3.91349e-20)
(0.639654 0.0238388 4.03211e-20)
(0.783155 0.0398814 -1.63007e-20)
(-0.018337 0.0144352 -6.90793e-21)
(-0.03047 0.0247542 2.81259e-20)
(-0.0189259 0.0247532 -3.14378e-20)
(0.0206813 0.0198725 -3.66168e-21)
(0.0933968 0.0139423 -1.47468e-20)
(0.2042 0.00995289 3.16146e-20)
(0.355892 0.0113797 3.9879e-20)
(0.540649 0.015504 -3.74989e-20)
(0.753191 0.0356696 3.91651e-20)
(0.910032 0.0389802 5.35851e-21)
(-0.0190473 0.0143264 -2.00427e-20)
(-0.0274299 0.0236359 -5.69176e-20)
(-0.0066909 0.0230467 5.55584e-20)
(0.047207 0.0179912 7.99201e-21)
(0.139277 0.0128161 1.15406e-20)
(0.273494 0.0109845 7.08253e-21)
(0.448899 0.0161326 3.0648e-20)
(0.651563 0.025218 2.19833e-20)
(0.862466 0.0475671 -7.61091e-20)
(1.02107 0.052213 -3.63931e-20)
(-0.022334 0.021501 1.37766e-20)
(0.00931009 0.0203918 -3.14835e-20)
(0.0794848 0.0156618 6.09407e-21)
(0.192809 0.0121364 9.74879e-21)
(0.351184 0.0136712 -6.91814e-20)
(0.547913 0.023541 3.02944e-20)
(0.761228 0.0378539 -1.97862e-20)
(0.963502 0.061477 2.05027e-20)
(1.10932 0.0672719 -7.11916e-21)
(0.0294513 0.0169612 -1.57478e-21)
(0.117866 0.0131684 -8.59193e-21)
(0.253964 0.0123342 2.53791e-22)
(0.436069 0.0184904 5.02204e-22)
(0.649777 0.0337766 -4.5915e-20)
(0.865496 0.0527688 6.14641e-21)
(1.05231 0.0766686 5.53729e-20)
(1.18049 0.0827456 2.44149e-20)
(0.0541033 0.0130461 5.37161e-20)
(0.16263 0.0109493 1.36724e-21)
(0.322429 0.0139787 -2.24507e-20)
(0.526358 0.0258849 5.96384e-20)
(0.750961 0.0467398 1.29643e-20)
(0.960934 0.0693035 7.64005e-22)
(1.12758 0.0924663 -2.43897e-20)
(1.23453 0.0979737 -3.12978e-20)
(0.213909 0.00956486 -2.23377e-20)
(0.397477 0.0176911 3.63799e-20)
(0.619679 0.0361241 -1.7674e-20)
(0.848034 0.0620704 -1.97927e-20)
(1.0453 0.0868278 -4.57852e-21)
(1.189 0.108327 -1.42048e-20)
(1.27458 0.112453 1.50426e-20)
(0.477871 0.0240263 1.9882e-20)
(0.713283 0.0492217 -6.57972e-20)
(0.938134 0.0792557 4.18583e-20)
(1.11754 0.104798 -1.87611e-20)
(1.23751 0.123869 2.78935e-20)
(1.303 0.126166 7.58963e-21)
(1.01925 0.0977504 -1.07125e-20)
(1.1776 0.1228 8.89665e-21)
(1.27457 0.138894 -2.13061e-20)
(1.32228 0.139117 -2.13873e-20)
(1.22617 0.140554 -2.82397e-20)
(1.30188 0.153328 5.26677e-22)
(1.33447 0.151441 1.48455e-20)
(1.32114 0.167191 2.11867e-20)
(1.3413 0.163279 -8.96338e-21)
(-0.221829 0.197124 -1.32802e-22)
(-0.25519 0.334379 4.09831e-23)
(-0.248381 0.464902 1.74432e-22)
(-0.215581 0.565852 -1.70794e-22)
(-0.124464 0.562455 4.3705e-23)
(0.0262103 0.409752 1.67558e-22)
(0.199356 0.12335 4.22493e-23)
(0.374989 -0.213967 -9.68198e-23)
(0.524026 -0.482296 -8.47387e-23)
(0.609327 -0.625944 -6.31529e-23)
(0.656132 -0.663191 3.25967e-24)
(0.648559 -0.636763 -6.86518e-23)
(0.539151 -0.661928 3.8844e-23)
(0.480019 -0.50219 -1.78408e-23)
(0.584228 -0.149763 -1.50961e-23)
(0.739562 0.210981 -1.0347e-23)
(0.850133 0.431232 5.81547e-23)
(0.901226 0.451045 7.34187e-23)
(0.864784 0.555313 2.07993e-24)
(0.753569 0.4993 2.81308e-23)
(0.737274 0.379017 -1.33356e-23)
(0.846761 0.0945325 -1.02594e-23)
(0.922707 -0.184769 -4.22773e-24)
(0.933837 -0.287114 -2.0685e-23)
(0.962524 -0.558545 -2.19682e-23)
(0.942739 -0.384308 -7.2173e-24)
(0.941308 -0.24067 6.46366e-24)
(0.961325 0.00230244 5.11461e-23)
(1.00367 0.519365 7.75139e-24)
(0.971349 0.31132 3.70032e-24)
(-0.213849 0.206383 5.55244e-23)
(-0.242176 0.335744 -4.09425e-22)
(-0.228333 0.458116 -5.64734e-23)
(-0.182822 0.548215 4.43111e-22)
(-0.07255 0.533825 -1.92826e-23)
(0.0880126 0.375496 -6.4088e-22)
(0.259562 0.0901131 5.38419e-22)
(0.430395 -0.244395 -5.26054e-22)
(0.572137 -0.504486 2.42289e-22)
(0.64578 -0.637825 -3.77221e-22)
(0.678706 -0.666552 5.21789e-22)
(0.66773 -0.627779 -3.95676e-22)
(0.560419 -0.648155 -1.86192e-23)
(0.478535 -0.50478 2.88482e-22)
(0.566497 -0.168397 -5.00865e-23)
(0.72038 0.1918 -6.42979e-23)
(0.836807 0.419572 -1.77887e-22)
(0.893786 0.449674 1.30722e-22)
(0.856261 0.563601 8.69089e-23)
(0.746265 0.506475 -1.12226e-22)
(0.731902 0.374563 -3.09473e-23)
(0.849463 0.0855966 6.41868e-23)
(0.928232 -0.188725 -3.06709e-24)
(0.939068 -0.288642 -7.64109e-23)
(0.96986 -0.558758 3.87346e-23)
(0.947234 -0.383833 6.56766e-23)
(0.943889 -0.241279 -8.68225e-25)
(0.960283 0.000113847 -9.68207e-23)
(0.998672 0.519118 1.70679e-24)
(0.96915 0.312125 -2.233e-23)
(-0.196601 0.213092 2.91082e-21)
(-0.21841 0.334184 -2.19728e-21)
(-0.19651 0.448134 1.48363e-21)
(-0.138644 0.527197 -1.38523e-21)
(-0.0123974 0.503297 -7.16395e-22)
(0.152789 0.343018 3.64063e-21)
(0.321638 0.0600452 -1.29433e-21)
(0.487243 -0.271484 -1.47466e-21)
(0.620851 -0.523728 7.08877e-22)
(0.683118 -0.647098 -1.88547e-23)
(0.701948 -0.668625 1.38154e-22)
(0.686715 -0.618913 -2.93442e-23)
(0.582632 -0.633341 -3.68634e-23)
(0.480227 -0.505478 9.56884e-23)
(0.550942 -0.186995 4.89669e-23)
(0.702335 0.171396 -1.21936e-22)
(0.824259 0.406849 3.79428e-22)
(0.88696 0.447822 8.82766e-23)
(0.847935 0.571798 -4.92517e-23)
(0.73949 0.513698 -7.67988e-23)
(0.727734 0.370053 5.04961e-23)
(0.852868 0.0766565 8.99012e-23)
(0.934159 -0.192521 -1.77077e-22)
(0.944578 -0.290018 6.04583e-23)
(0.977025 -0.558864 -1.17584e-22)
(0.951571 -0.383307 -7.54122e-23)
(0.946544 -0.241815 1.45182e-23)
(0.959434 -0.00195436 1.69541e-22)
(0.993625 0.518849 -2.03722e-23)
(0.966847 0.312855 1.37227e-23)
(-0.171513 0.21687 -3.14432e-21)
(-0.185654 0.32957 1.46017e-21)
(-0.155048 0.435015 -1.88206e-22)
(-0.0856076 0.503316 4.22568e-22)
(0.0530737 0.471744 -4.7543e-22)
(0.219075 0.312756 -2.46657e-21)
(0.384478 0.0331873 1.31695e-21)
(0.544983 -0.29517 -2.06664e-22)
(0.669819 -0.54003 9.44476e-22)
(0.720983 -0.653829 1.47256e-21)
(0.725772 -0.669379 -3.45886e-22)
(0.705483 -0.610258 2.58971e-22)
(0.605427 -0.617741 -2.84798e-22)
(0.485253 -0.504275 -3.14621e-22)
(0.537931 -0.205325 5.36674e-23)
(0.685584 0.14987 -1.60454e-22)
(0.81259 0.393064 -3.31765e-22)
(0.880753 0.445465 -8.09596e-23)
(0.839853 0.579875 1.09061e-22)
(0.733333 0.520938 -3.86422e-23)
(0.724783 0.365517 -1.52937e-22)
(0.856937 0.067758 -5.46546e-24)
(0.940463 -0.196149 7.07938e-23)
(0.95035 -0.291223 1.05841e-23)
(0.984009 -0.558845 4.10507e-23)
(0.955735 -0.382739 2.11265e-23)
(0.949249 -0.24229 1.69164e-23)
(0.958763 -0.00389751 5.63594e-23)
(0.988529 0.518569 1.15953e-22)
(0.964448 0.31351 7.60388e-24)
(-0.140289 0.217478 2.20836e-21)
(-0.145961 0.321919 2.33371e-21)
(-0.10635 0.418896 1.4653e-21)
(-0.0262338 0.476955 -1.24052e-21)
(0.121318 0.44012 1.6195e-22)
(0.285427 0.284838 -8.40969e-22)
(0.447055 0.00953277 -2.24691e-21)
(0.603047 -0.315458 -6.98374e-22)
(0.718721 -0.553419 3.80883e-22)
(0.759025 -0.658107 -7.16706e-23)
(0.750081 -0.668797 -5.11443e-22)
(0.724007 -0.601877 1.09576e-22)
(0.628487 -0.601627 5.36355e-22)
(0.493634 -0.501223 -3.25972e-22)
(0.527852 -0.223122 3.22419e-22)
(0.670313 0.127351 4.64224e-23)
(0.801897 0.378224 6.89944e-22)
(0.875158 0.442578 -9.49487e-23)
(0.832074 0.587797 -1.83974e-22)
(0.72787 0.528166 -2.53125e-23)
(0.723045 0.360991 -2.0223e-22)
(0.861634 0.0589479 -3.08952e-22)
(0.947119 -0.199598 -5.75727e-25)
(0.95636 -0.292235 1.76232e-22)
(0.990801 -0.558683 1.26744e-23)
(0.959716 -0.382137 3.52354e-23)
(0.951982 -0.242714 -7.53432e-23)
(0.958251 -0.00571187 -2.46369e-22)
(0.983385 0.518286 -1.93843e-22)
(0.961962 0.314093 -4.39415e-23)
(-0.104761 0.214811 1.31875e-21)
(-0.101509 0.311578 2.94496e-21)
(-0.0529482 0.399648 1.30539e-21)
(0.0369632 0.448688 -4.85851e-21)
(0.190185 0.40898 5.48898e-21)
(0.350465 0.259321 -2.66578e-21)
(0.508458 -0.0109625 -6.48725e-22)
(0.660907 -0.332419 -1.14229e-21)
(0.767265 -0.56394 -2.90757e-22)
(0.796909 -0.660036 2.72211e-21)
(0.774777 -0.666874 -5.931e-22)
(0.742262 -0.593809 -9.06402e-22)
(0.651551 -0.585279 3.03184e-24)
(0.505232 -0.496435 4.33703e-22)
(0.52109 -0.240141 -5.8701e-22)
(0.656744 0.103994 6.42918e-22)
(0.792276 0.362347 -6.85997e-22)
(0.870159 0.439138 3.65333e-22)
(0.82466 0.59552 4.25927e-23)
(0.723161 0.535354 3.13505e-22)
(0.722496 0.356519 1.40268e-22)
(0.866924 0.0502774 1.16724e-22)
(0.954106 -0.202862 3.1969e-23)
(0.96258 -0.293037 2.00613e-22)
(0.997394 -0.558364 7.71065e-23)
(0.963504 -0.381508 -4.1714e-23)
(0.954718 -0.243101 2.17871e-22)
(0.957873 -0.00739469 -2.27096e-22)
(0.978194 0.518007 2.95768e-22)
(0.9594 0.314603 7.32405e-23)
(-0.0667168 0.208825 -2.51436e-21)
(-0.0544923 0.298192 4.36366e-22)
(0.00262817 0.377858 5.01411e-22)
(0.101649 0.419136 -8.2617e-22)
(0.257834 0.378645 5.95291e-22)
(0.412978 0.236172 1.34396e-21)
(0.567953 -0.0284331 1.16137e-21)
(0.718076 -0.346183 -1.61335e-21)
(0.815182 -0.571658 -1.36896e-21)
(0.834321 -0.659733 8.24336e-22)
(0.799755 -0.663624 1.58981e-22)
(0.760227 -0.586068 7.49615e-22)
(0.674412 -0.568965 -7.5724e-22)
(0.519763 -0.490077 -3.79602e-22)
(0.517976 -0.256166 5.40945e-22)
(0.645131 0.0799817 2.39974e-22)
(0.783812 0.345464 8.20802e-24)
(0.865738 0.435118 5.73461e-24)
(0.817678 0.602996 -1.30101e-22)
(0.71925 0.542481 -5.14199e-22)
(0.723099 0.352144 -2.23636e-24)
(0.872772 0.0418025 -1.86115e-22)
(0.961401 -0.205931 -1.28784e-22)
(0.968981 -0.293612 -1.13887e-22)
(1.00378 -0.557871 -1.80686e-22)
(0.967096 -0.380859 -3.38419e-23)
(0.957438 -0.243458 -2.03545e-22)
(0.957604 -0.00894472 2.61047e-22)
(0.972958 0.517738 -2.67866e-22)
(0.956773 0.315043 -7.40706e-23)
(-0.0280679 0.199415 2.77097e-21)
(-0.00673445 0.281762 4.21081e-22)
(0.0583302 0.35436 -8.83486e-23)
(0.165547 0.388683 -2.25301e-22)
(0.32268 0.349353 -8.26022e-22)
(0.471939 0.215247 5.75749e-21)
(0.625032 -0.0432328 -4.6995e-21)
(0.774162 -0.356937 -1.88391e-21)
(0.862223 -0.576652 -6.30441e-22)
(0.870975 -0.657326 1.08524e-21)
(0.824907 -0.659073 1.49975e-21)
(0.777884 -0.578651 -5.03918e-22)
(0.696905 -0.552935 -6.32869e-22)
(0.536824 -0.482361 8.97474e-22)
(0.518729 -0.271006 -1.07885e-21)
(0.635743 0.0555215 2.57751e-22)
(0.776582 0.327625 4.20558e-23)
(0.861874 0.430493 2.70832e-22)
(0.811189 0.61017 -4.08541e-22)
(0.71616 0.549529 5.89351e-22)
(0.724799 0.347917 -4.95073e-23)
(0.879142 0.0335449 8.52992e-22)
(0.96898 -0.208799 1.7799e-22)
(0.975535 -0.293942 -5.05485e-22)
(1.00995 -0.557191 3.91635e-23)
(0.970492 -0.380194 -7.19493e-23)
(0.96012 -0.243796 3.06319e-23)
(0.957415 -0.0103597 -2.20138e-22)
(0.967679 0.517485 1.59578e-22)
(0.954094 0.315412 7.02107e-23)
(0.00978869 0.186955 -1.81311e-21)
(0.0401899 0.26302 1.11477e-21)
(0.112378 0.32921 1.97957e-21)
(0.226778 0.357631 7.80493e-22)
(0.38337 0.32122 -4.70248e-21)
(0.526561 0.196297 3.50906e-22)
(0.679447 -0.0557976 1.17933e-21)
(0.828881 -0.364891 -3.95707e-21)
(0.908157 -0.579011 -9.97724e-22)
(0.906619 -0.65295 4.05076e-21)
(0.850116 -0.653265 -1.79661e-22)
(0.795222 -0.571537 7.17568e-22)
(0.718896 -0.537408 -9.21989e-22)
(0.555948 -0.473528 4.77817e-22)
(0.523386 -0.284519 -3.93499e-22)
(0.628846 0.0308445 6.27621e-22)
(0.770646 0.308898 6.88987e-23)
(0.858542 0.425236 -3.96988e-22)
(0.805249 0.616983 7.34933e-22)
(0.713896 0.556484 -4.37053e-22)
(0.727525 0.343887 2.93646e-22)
(0.885994 0.0255491 -1.20628e-22)
(0.97682 -0.211459 -5.4432e-22)
(0.982214 -0.294013 5.61286e-22)
(1.01588 -0.556312 -9.0345e-23)
(0.973699 -0.379518 2.37103e-22)
(0.962748 -0.244122 -2.34481e-22)
(0.957276 -0.0116395 3.95895e-22)
(0.962361 0.517251 -2.11839e-22)
(0.951374 0.315712 2.53975e-24)
(0.0462985 0.171956 2.27532e-22)
(0.0850639 0.242235 4.29674e-21)
(0.163475 0.302691 -5.49673e-21)
(0.28394 0.326259 -1.34413e-21)
(0.438824 0.294234 5.95011e-21)
(0.576386 0.178972 1.71534e-21)
(0.731235 -0.066611 -4.69557e-21)
(0.882051 -0.370271 -1.25212e-21)
(0.952762 -0.578825 1.94316e-21)
(0.941035 -0.646742 1.93574e-21)
(0.875259 -0.646255 -1.64122e-22)
(0.812239 -0.564689 -4.54064e-23)
(0.740272 -0.52257 3.53966e-22)
(0.576657 -0.463832 -3.31588e-22)
(0.531756 -0.296623 2.39337e-22)
(0.624658 0.00632428 -2.32955e-22)
(0.766045 0.289368 -9.27903e-23)
(0.855719 0.419318 5.06951e-22)
(0.799902 0.623371 -1.04762e-21)
(0.712447 0.563339 6.00455e-22)
(0.731195 0.340101 -2.25558e-22)
(0.893287 0.0178806 -5.84981e-22)
(0.984894 -0.213903 6.73577e-23)
(0.988991 -0.293811 -1.42005e-22)
(1.02158 -0.555223 3.03118e-22)
(0.97673 -0.378836 -1.26309e-22)
(0.965307 -0.244442 -6.43233e-23)
(0.957155 -0.0127863 -1.83423e-22)
(0.957008 0.517038 -9.40522e-23)
(0.948626 0.315942 -1.22849e-23)
(0.0817328 0.154691 -3.0435e-21)
(0.127347 0.219742 5.69502e-21)
(0.210942 0.275192 -1.23498e-21)
(0.336199 0.294835 -8.4851e-21)
(0.488355 0.268288 1.04274e-20)
(0.621393 0.162825 3.95669e-21)
(0.78072 -0.0761635 -9.38663e-21)
(0.93358 -0.373318 -1.5128e-22)
(0.995824 -0.576185 -2.70753e-21)
(0.974044 -0.638839 8.87543e-22)
(0.900203 -0.638109 -1.35787e-21)
(0.828948 -0.558059 1.29321e-21)
(0.760938 -0.508568 -8.12328e-23)
(0.598506 -0.453524 1.07409e-22)
(0.543417 -0.307289 3.12948e-22)
(0.623302 -0.0180716 -7.61648e-22)
(0.762773 0.269129 5.0562e-22)
(0.853377 0.412713 -3.51482e-22)
(0.795182 0.629271 1.90801e-22)
(0.711784 0.570091 4.61312e-22)
(0.73572 0.336609 -8.46985e-23)
(0.900981 0.0105762 -2.60772e-22)
(0.993172 -0.216127 1.1336e-21)
(0.995843 -0.293324 -4.42021e-22)
(1.02703 -0.553917 6.16265e-23)
(0.979606 -0.378153 -2.11085e-22)
(0.967787 -0.24476 4.72212e-22)
(0.95702 -0.0137998 5.17448e-22)
(0.951621 0.516847 2.38126e-22)
(0.945864 0.316102 1.17112e-22)
(0.117482 0.135622 -1.67459e-21)
(0.167472 0.196016 7.38915e-21)
(0.254906 0.247128 -1.82229e-21)
(0.383442 0.263623 -2.79924e-21)
(0.531857 0.243211 9.65789e-21)
(0.662127 0.147339 -7.96619e-21)
(0.828497 -0.0848941 -5.10462e-21)
(0.983431 -0.374277 1.19229e-22)
(1.03713 -0.571177 8.37448e-21)
(1.0055 -0.629383 -7.18177e-22)
(0.924812 -0.628912 -6.49709e-22)
(0.845373 -0.551595 2.23322e-22)
(0.780807 -0.495522 3.68905e-22)
(0.621114 -0.442835 -4.39132e-22)
(0.557692 -0.316535 4.23726e-22)
(0.624756 -0.042265 -8.34798e-25)
(0.760837 0.248296 2.16156e-22)
(0.851487 0.405394 -2.78878e-23)
(0.791107 0.634617 6.19751e-22)
(0.711863 0.576738 -7.17277e-22)
(0.741003 0.333455 -2.69105e-22)
(0.909035 0.00372781 4.74363e-22)
(1.00162 -0.218125 -6.71359e-22)
(1.00275 -0.292541 2.29929e-22)
(1.03223 -0.552386 -2.36147e-22)
(0.982357 -0.377472 -3.69959e-23)
(0.970182 -0.245078 -7.17963e-23)
(0.956837 -0.0146811 -5.13055e-22)
(0.946206 0.516678 -2.59565e-23)
(0.943101 0.316191 -2.02952e-22)
(0.156256 0.115534 -2.85302e-22)
(0.207116 0.171665 4.49101e-21)
(0.296516 0.218961 -5.3814e-21)
(0.426457 0.232926 6.22446e-21)
(0.570035 0.218806 4.24581e-21)
(0.6998 0.131971 -4.18397e-21)
(0.875357 -0.0931511 3.10134e-21)
(1.03157 -0.373336 -3.71415e-21)
(1.07649 -0.5639 4.87121e-21)
(1.03529 -0.618532 -7.29418e-21)
(0.948944 -0.618775 1.29875e-21)
(0.861551 -0.545253 1.01129e-21)
(0.799811 -0.483523 -4.73677e-22)
(0.644166 -0.431965 5.45227e-22)
(0.573822 -0.324396 -4.75942e-22)
(0.628826 -0.0658567 2.37735e-22)
(0.760163 0.226984 -4.10165e-22)
(0.850009 0.397334 2.91069e-22)
(0.787682 0.639342 -2.5127e-22)
(0.712628 0.583283 -2.73951e-22)
(0.746956 0.330682 3.65203e-22)
(0.917408 -0.00283011 -7.86682e-22)
(1.01021 -0.219898 1.32046e-21)
(1.00969 -0.291454 -5.142e-22)
(1.03717 -0.550627 -4.09167e-22)
(0.985019 -0.376798 -7.85747e-23)
(0.97249 -0.245397 3.46094e-23)
(0.956573 -0.0154333 8.94353e-24)
(0.940766 0.516527 -1.17877e-22)
(0.94035 0.31621 1.83319e-22)
(0.20177 0.0955894 4.72926e-21)
(0.24925 0.147456 -2.36228e-21)
(0.338088 0.191239 1.86524e-21)
(0.467106 0.203103 -2.06028e-22)
(0.604619 0.194888 4.6862e-21)
(0.736322 0.116237 -3.96032e-21)
(0.922187 -0.101145 -6.31485e-21)
(1.07794 -0.370583 2.22316e-21)
(1.11369 -0.55448 3.67502e-21)
(1.06334 -0.606457 3.44251e-21)
(0.972464 -0.607814 -3.17072e-21)
(0.877534 -0.53898 2.72126e-21)
(0.817904 -0.472629 3.94085e-22)
(0.667399 -0.421073 -2.13005e-22)
(0.591042 -0.33092 -1.22566e-23)
(0.635133 -0.0887644 -1.63122e-22)
(0.760623 0.205304 -1.22911e-23)
(0.848894 0.388506 1.46072e-22)
(0.784894 0.643381 -9.38531e-23)
(0.714013 0.58973 1.04174e-22)
(0.753468 0.328324 -4.21978e-22)
(0.926069 -0.00903772 1.99667e-22)
(1.01893 -0.221436 -9.80379e-22)
(1.01664 -0.290055 -4.24472e-23)
(1.04185 -0.548638 3.37891e-22)
(0.987635 -0.376131 2.78517e-22)
(0.974713 -0.245712 -5.03521e-23)
(0.956197 -0.0160589 2.52159e-23)
(0.935304 0.516391 3.56339e-22)
(0.937624 0.316156 -4.52534e-23)
(0.25783 0.0772246 -3.7799e-21)
(0.297773 0.124299 5.42794e-21)
(0.382997 0.164607 -1.16931e-21)
(0.508348 0.174583 -2.89608e-21)
(0.638451 0.171354 3.88596e-21)
(0.774169 0.0998099 4.36409e-22)
(0.969801 -0.108892 -2.00317e-21)
(1.12236 -0.366003 7.85492e-21)
(1.14852 -0.54302 -1.05572e-20)
(1.0896 -0.593255 6.61507e-21)
(0.995251 -0.596062 -7.19598e-22)
(0.89338 -0.532641 -1.84476e-21)
(0.835063 -0.462807 -4.32261e-22)
(0.690586 -0.410248 4.0294e-22)
(0.608695 -0.336122 -1.03452e-22)
(0.643144 -0.110918 3.19073e-22)
(0.762029 0.183344 -3.88725e-22)
(0.848078 0.378883 2.96519e-22)
(0.782722 0.646669 2.59384e-22)
(0.715943 0.596081 9.96548e-23)
(0.760467 0.326415 4.48601e-22)
(0.934996 -0.0146821 -6.13527e-23)
(1.02772 -0.222738 4.45342e-22)
(1.02359 -0.288342 -7.94166e-23)
(1.04629 -0.546415 3.70276e-22)
(0.990245 -0.375473 2.82989e-23)
(0.976852 -0.246015 2.01607e-22)
(0.955677 -0.0165592 -2.90167e-22)
(0.929822 0.516266 -3.34127e-22)
(0.934936 0.31603 -9.1116e-23)
(0.327133 0.0618527 -3.36336e-22)
(0.356771 0.103143 -2.12386e-21)
(0.435263 0.139757 -4.80257e-21)
(0.553999 0.147858 2.21967e-21)
(0.675312 0.148247 2.29641e-21)
(0.81606 0.0826312 -1.78436e-21)
(1.01875 -0.116256 -9.31039e-22)
(1.16457 -0.359536 6.38042e-21)
(1.18079 -0.529552 -6.78317e-21)
(1.11404 -0.578891 -1.20869e-21)
(1.0172 -0.583443 5.78952e-23)
(0.90914 -0.526024 -2.44914e-22)
(0.851282 -0.453954 1.70004e-21)
(0.713513 -0.399539 -9.07068e-22)
(0.626313 -0.340001 3.50078e-22)
(0.652235 -0.132231 -3.33042e-22)
(0.764128 0.161183 -3.33126e-24)
(0.84748 0.368431 -3.96706e-22)
(0.781127 0.649138 2.43509e-22)
(0.718339 0.602339 -7.28668e-22)
(0.767893 0.324976 1.71581e-22)
(0.944183 -0.0198519 4.77609e-22)
(1.03657 -0.223801 -3.38549e-22)
(1.0305 -0.286309 2.89631e-22)
(1.05051 -0.543966 -6.31184e-22)
(0.992878 -0.374825 2.61488e-22)
(0.978902 -0.246297 -3.74184e-22)
(0.954979 -0.0169305 3.1483e-22)
(0.924323 0.516143 8.44425e-23)
(0.932298 0.315829 -1.56496e-23)
(0.410489 0.0504921 -4.42984e-23)
(0.429764 0.0847771 -2.18875e-21)
(0.49894 0.117318 8.97353e-21)
(0.608205 0.123387 -9.0005e-21)
(0.719415 0.125748 6.82586e-21)
(0.864431 0.0650575 -7.25106e-21)
(1.06909 -0.122993 2.98912e-21)
(1.20416 -0.351194 -2.60526e-22)
(1.21034 -0.514277 -1.72385e-21)
(1.13669 -0.563588 1.45141e-21)
(1.03823 -0.570239 1.68294e-21)
(0.924847 -0.519254 3.5384e-22)
(0.86657 -0.446175 1.48674e-21)
(0.735976 -0.389133 -7.35496e-22)
(0.643653 -0.342671 8.96576e-22)
(0.661778 -0.152645 2.04611e-22)
(0.766612 0.13892 -5.24166e-22)
(0.847001 0.357127 1.15992e-22)
(0.780062 0.650728 6.71149e-22)
(0.721115 0.608497 4.20848e-22)
(0.775718 0.324 -1.3472e-21)
(0.953651 -0.0245576 3.3048e-22)
(1.04544 -0.224628 2.96096e-22)
(1.03736 -0.283955 -1.31296e-22)
(1.05454 -0.541315 2.88132e-22)
(0.995549 -0.374207 -2.53119e-22)
(0.980853 -0.246557 -7.48209e-23)
(0.95407 -0.0171704 4.2998e-22)
(0.918807 0.516017 4.75632e-23)
(0.929724 0.315551 4.35587e-23)
(0.50743 0.0431941 -1.34285e-22)
(0.51947 0.0694829 -1.20066e-21)
(0.577544 0.0978183 -4.5571e-21)
(0.674696 0.101617 4.94294e-21)
(0.774636 0.10417 -8.80203e-21)
(0.920819 0.0476125 -9.99593e-22)
(1.12022 -0.128179 1.12185e-20)
(1.24059 -0.340981 -8.15549e-21)
(1.23705 -0.498056 1.39966e-21)
(1.15759 -0.548592 -9.77398e-22)
(1.0583 -0.557724 3.62668e-21)
(0.940539 -0.513259 -1.24739e-21)
(0.880983 -0.440104 4.57893e-22)
(0.757811 -0.379508 3.42094e-22)
(0.660686 -0.344461 2.69943e-22)
(0.671236 -0.172405 7.95733e-23)
(0.769157 0.116532 -4.74955e-22)
(0.846513 0.344987 5.14646e-22)
(0.779468 0.651332 7.60143e-23)
(0.724182 0.61458 -4.23772e-22)
(0.783985 0.323536 2.58748e-22)
(0.96346 -0.0286943 -3.28307e-22)
(1.05429 -0.225205 2.14668e-22)
(1.04415 -0.281288 -2.35988e-22)
(1.05839 -0.538489 3.00739e-22)
(0.998251 -0.373651 1.20216e-22)
(0.982682 -0.246815 -1.18281e-22)
(0.952916 -0.0173125 -1.31752e-22)
(0.913273 0.515877 -2.31644e-22)
(0.927227 0.315197 2.40745e-23)
(0.619142 0.0376843 -2.28186e-21)
(0.628317 0.0565991 5.469e-21)
(0.673603 0.0817908 -2.65051e-21)
(0.75598 0.0835069 -3.82492e-21)
(0.843558 0.0850849 1.53655e-21)
(0.985469 0.0308639 -5.86984e-21)
(1.17086 -0.129348 7.30771e-21)
(1.27305 -0.328149 1.82758e-21)
(1.26072 -0.481331 -5.65029e-21)
(1.17674 -0.534608 3.01195e-21)
(1.07744 -0.54637 -1.71736e-21)
(0.956295 -0.508203 -2.05808e-22)
(0.894671 -0.435793 1.56285e-21)
(0.778931 -0.370722 -1.13212e-22)
(0.677517 -0.345302 -2.27769e-22)
(0.680208 -0.191763 5.22627e-22)
(0.771551 0.0934101 -7.52012e-22)
(0.845842 0.331493 3.65901e-22)
(0.779246 0.651105 -6.88042e-22)
(0.727412 0.620346 6.74208e-22)
(0.792933 0.324049 1.67906e-22)
(0.973735 -0.0318736 -3.79394e-22)
(1.06307 -0.225488 1.43524e-22)
(1.05084 -0.278354 1.15383e-23)
(1.0621 -0.535457 -4.32692e-23)
(1.00095 -0.373113 -1.36028e-22)
(0.984356 -0.247041 5.79022e-23)
(0.951488 -0.0174777 -4.08432e-24)
(0.907717 0.515712 1.12276e-22)
(0.924819 0.31477 -2.48444e-23)
(0.754593 0.0301758 -7.86608e-21)
(0.758668 0.0463087 1.77906e-21)
(0.788022 0.0687949 -2.79778e-21)
(0.852724 0.0686713 9.25578e-21)
(0.926632 0.0687343 -4.80649e-21)
(1.05718 0.0198045 5.79493e-21)
(1.21923 -0.127143 3.53794e-21)
(1.30066 -0.311414 -8.9231e-21)
(1.28113 -0.459956 6.99719e-22)
(1.19414 -0.515848 3.94154e-21)
(1.09563 -0.530511 -1.4292e-21)
(0.972084 -0.499321 -2.67758e-21)
(0.907747 -0.429713 3.41396e-23)
(0.799253 -0.360743 1.3557e-21)
(0.694244 -0.34346 1.02045e-23)
(0.688392 -0.208925 5.03762e-23)
(0.77378 0.0697692 -5.17361e-23)
(0.844658 0.315362 -1.73495e-22)
(0.779488 0.648512 -2.98017e-22)
(0.730847 0.62733 6.38742e-22)
(0.803522 0.325663 -5.21051e-22)
(0.984681 -0.0345559 -1.49031e-22)
(1.0717 -0.225525 1.97084e-22)
(1.05741 -0.275203 1.80237e-22)
(1.06569 -0.532066 -2.05823e-22)
(1.0036 -0.372317 1.96868e-22)
(0.985824 -0.247044 3.67212e-23)
(0.949765 -0.0176656 -6.6419e-23)