/*--------------------------------*- C++ -*----------------------------------*\
  =========                 |
  \\      /  F ield         | OpenFOAM: The Open Source CFD Toolbox
   \\    /   O peration     | Website:  https://openfoam.org
    \\  /    A nd           | Version:  7
     \\/     M anipulation  |
\*---------------------------------------------------------------------------*/
FoamFile
{
    version     2.0;
    format      ascii;
    class       surfaceScalarField;
    location    "165";
    object      phi;
}
// * * * * * * * * * * * * * * * * * * * * * * * * * * * * * * * * * * * * * //

dimensions      [0 3 -1 0 0 0 0];

internalField   nonuniform List<scalar> 
4148
(
0.0884889
0.0212476
0.0215223
0.0804329
0.0873067
0.0227044
0.0208293
0.0700026
0.0227138
0.0785484
0.0859033
0.0241173
0.014803
0.0428006
0.0185649
0.0557131
0.021555
0.0670126
0.0238018
0.0763016
0.0842375
0.0254676
0.0100208
0.0254912
0.0144558
0.0383656
0.0186314
0.0515375
0.0220895
0.0635545
0.0247513
0.0736397
0.0822592
0.0267296
0.00543704
0.0118493
0.00932964
0.0215986
0.0138983
0.033797
0.0184478
0.046988
0.0223913
0.059611
0.0255201
0.0705109
0.0799071
0.0278722
0.00231457
0.00364352
0.00485076
0.00931313
0.00855068
0.0178987
0.013145
0.0292027
0.0179967
0.0421362
0.02242
0.0551877
0.0260594
0.0668715
0.077116
0.0288505
0.00200742
0.00234603
0.00428341
0.00703713
0.00772497
0.0144571
0.0122277
0.0247
0.0172764
0.0370875
0.02214
0.0503241
0.0263174
0.0626942
0.0738139
0.0296195
0.000606399
-0.000546093
0.00174004
0.00121239
0.00375908
0.00501809
0.00689742
0.0113188
0.0111956
0.0204019
0.0163063
0.0319767
0.0215311
0.0450992
0.0262364
0.057989
0.0699338
0.0301165
8.65701e-05
-0.000753146
0.000527361
-0.000986884
0.00151954
0.000220212
0.00329727
0.00324036
0.00611121
0.00850485
0.0101105
0.0164026
0.0151314
0.0269559
0.0205927
0.0396379
0.0257817
0.0527999
0.0654447
0.0302708
7.92765e-05
-0.000832422
0.000473472
-0.00138108
0.00134923
-0.000655544
0.00291061
0.00167897
0.00540168
0.00601379
0.0090378
0.0127664
0.0138199
0.0221738
0.0193622
0.0340956
0.0248886
0.0472735
0.0601711
0.0301622
7.90963e-05
-0.000911519
0.000443231
-0.00174522
0.00122771
-0.00144002
0.00260306
0.000303628
0.00479111
0.00382574
0.00803431
0.00952323
0.0124546
0.0177535
0.0179165
0.0286337
0.0235272
0.0416628
0.0542068
0.0294915
8.48454e-05
-0.000996364
0.000432857
-0.00209323
0.00114858
-0.00215574
0.00236893
-0.000916727
0.00428548
0.00190919
0.007138
0.00667071
0.0111226
0.0137689
0.0163173
0.0234389
0.0220153
0.0359649
0.0490879
0.0271341
9.47306e-05
-0.00109109
0.000436591
-0.00243509
0.00110098
-0.00282014
0.00219374
-0.00200949
0.00387422
0.00022871
0.00636167
0.00418326
0.00988788
0.0102427
0.014652
0.0186748
0.0203398
0.0302771
0.0436856
0.0257421
0.000106557
-0.00119765
0.000447402
-0.00277593
0.00107114
-0.00344387
0.00205658
-0.00299493
0.00353325
-0.00124796
0.00569273
0.00202379
0.00877363
0.00716183
0.0130084
0.0144401
0.01844
0.0248455
0.0381076
0.024018
0.000118008
-0.00131566
0.000457916
-0.00311584
0.00104434
-0.0040303
0.00193371
-0.00388429
0.00323066
-0.00254491
0.00509892
0.000155534
0.00776355
0.0044972
0.0114417
0.010762
0.0164103
0.0198769
0.0325395
0.0219783
0.000126934
-0.00144259
0.000461354
-0.00345026
0.00100703
-0.00457597
0.00180264
-0.0046799
0.00293352
-0.0036758
0.00453886
-0.00144981
0.00681887
0.00221719
0.00996195
0.00761887
0.0143422
0.0154966
0.0271927
0.0196891
0.000131576
-0.00157417
0.000452303
-0.00377099
0.000948517
-0.00507219
0.00164542
-0.00537681
0.00261405
-0.00464442
0.00397386
-0.00280962
0.00589625
0.000294797
0.00854748
0.00496764
0.0122964
0.0117477
0.0222551
0.0172341
0.000130712
-0.00170488
0.000427184
-0.00406746
0.00086203
-0.00550703
0.00145076
-0.00596554
0.00225417
-0.00544783
0.00337628
-0.00393174
0.00496189
-0.00129081
0.00716498
0.00276455
0.0102974
0.00861521
0.017856
0.0146965
0.000123712
-0.00182859
0.000384434
-0.00432818
0.00074501
-0.00586761
0.00121458
-0.00643511
0.0018468
-0.00608004
0.00273359
-0.00481853
0.00399861
-0.00255583
0.00578863
0.000974528
0.00834939
0.00605445
0.0140585
0.0121469
0.000110533
-0.00193913
0.000324407
-0.00454206
0.000598807
-0.00614201
0.000939409
-0.00677571
0.00139494
-0.00653558
0.00204787
-0.00547145
0.00300622
-0.00351418
0.00441024
-0.000429488
0.00645357
0.00401112
0.0108752
0.00963694
9.16525e-05
-0.00203078
0.000249105
-0.00469951
0.000427946
-0.00632085
0.000632859
-0.00698062
0.00090923
-0.00681195
0.00133198
-0.0058942
0.0019977
-0.0041799
0.0030387
-0.00147049
0.00461629
0.00243354
0.00829187
0.00719958
6.79782e-05
-0.00209876
0.000161774
-0.0047933
0.000239205
-0.00639828
0.000305869
-0.00704729
0.000404827
-0.00691091
0.00060461
-0.00609398
0.000993287
-0.00456858
0.00169281
-0.00217001
0.00284875
0.0012776
0.00628771
0.00485291
4.07379e-05
-0.00213949
6.65589e-05
-0.00481913
4.06806e-05
-0.0063724
-2.88543e-05
-0.00697775
-0.000100688
-0.00683907
-0.000112008
-0.00608266
1.7129e-05
-0.00469772
0.00038423
-0.00253711
0.00116942
0.000492402
0.00485037
0.00260677
1.13623e-05
-0.00215086
-3.20122e-05
-0.00477575
-0.000159085
-0.00624533
-0.000358264
-0.00677857
-0.000589991
-0.00660734
-0.000797107
-0.00587555
-0.000908631
-0.0045862
-0.000822432
-0.00262331
-0.000431129
0.000101099
0.00396836
0.00045088
-1.86827e-05
-0.00213217
-0.000129589
-0.00466484
-0.000351813
-0.00602311
-0.000670345
-0.00646004
-0.00104757
-0.00623012
-0.00143247
-0.00549064
-0.00176245
-0.00425622
-0.00195392
-0.00243184
-0.00193376
8.09403e-05
0.00353254
-0.00149794
-4.78734e-05
-0.0020843
-0.000221663
-0.00449106
-0.000529854
-0.00571492
-0.000954028
-0.00603587
-0.00145903
-0.00572512
-0.00200048
-0.0049492
-0.00252589
-0.00373081
-0.00297039
-0.00198734
-0.00327714
0.000387688
0.00357344
-0.00331804
-7.48567e-05
-0.00200944
-0.000304469
-0.00426144
-0.000686638
-0.00533275
-0.00119997
-0.00552254
-0.00181224
-0.00511285
-0.00248596
-0.00427548
-0.00317928
-0.00303749
-0.00384514
-0.00132148
-0.0044446
0.000987146
0.00404466
-0.00491582
-9.84671e-05
-0.00191098
-0.000374889
-0.00398502
-0.000816925
-0.00489071
-0.00140079
-0.00493867
-0.00209744
-0.0044162
-0.00287613
-0.00349679
-0.00370516
-0.00220846
-0.00455294
-0.000473699
-0.00539764
0.00183185
0.00487171
-0.0062247
-0.000117808
-0.00179317
-0.000430638
-0.00367219
-0.00091701
-0.00440434
-0.00155131
-0.00430436
-0.00230764
-0.00365988
-0.00316124
-0.00264319
-0.0040892
-0.0012805
-0.0050714
0.000508507
-0.00610028
0.00286073
0.00596042
-0.00718899
-0.000132298
-0.00166087
-0.00047037
-0.00333412
-0.000984857
-0.00388985
-0.00164877
-0.00364046
-0.00243894
-0.0028697
-0.00333533
-0.0017468
-0.00432135
-0.000294485
-0.00538455
0.0015717
-0.00652539
0.00400157
0.00720341
-0.00776838
-0.000141702
-0.000493727
-0.00102018
-0.00169293
-0.0024909
-0.00339739
-0.00439767
-0.00548461
-0.00665902
-0.00794285
0.205257
-0.00107741
0.206427
-0.00117023
0.207689
-0.00126158
0.20904
-0.00135128
0.210479
-0.0014392
0.212004
-0.00152518
0.213614
-0.0016091
0.215304
-0.00169077
0.217074
-0.00177016
0.218921
-0.00184687
-0.00192168
0.220843
0.195869
-0.0021081
0.196988
-0.00228926
0.198194
-0.00246751
0.199485
-0.00264255
0.20086
-0.0028141
0.202317
-0.00298187
0.203854
-0.00314559
0.205468
-0.00330494
0.207157
-0.00345983
0.20892
-0.00360949
-0.00375538
0.210754
0.18706
-0.0030964
0.188132
-0.00336176
0.189288
-0.00362284
0.190524
-0.00387923
0.191841
-0.00413049
0.193235
-0.00437621
0.194705
-0.00461601
0.19625
-0.0048494
0.197866
-0.00507624
0.199552
-0.00529545
-0.00550913
0.201306
0.178775
-0.00404637
0.179806
-0.00439205
0.180915
-0.00473216
0.182102
-0.00506614
0.183365
-0.00539345
0.184702
-0.00571353
0.186112
-0.0060259
0.187593
-0.00632992
0.189142
-0.0066254
0.190757
-0.00691096
-0.00718931
0.192438
0.17097
-0.00496138
0.171962
-0.00538373
0.173029
-0.00579927
0.17417
-0.00620731
0.175384
-0.00660721
0.176669
-0.00699827
0.178023
-0.00737992
0.179444
-0.00775137
0.180931
-0.00811236
0.182482
-0.00846126
-0.00880133
0.184094
0.163605
-0.00584444
0.164561
-0.00633999
0.165589
-0.00682756
0.166688
-0.00730633
0.167857
-0.00777553
0.169093
-0.00823438
0.170395
-0.00868217
0.171762
-0.00911801
0.173191
-0.00954153
0.17468
-0.00995092
-0.0103499
0.176229
0.156645
-0.00669829
0.157569
-0.00726374
0.158561
-0.00782007
0.159621
-0.00836637
0.160747
-0.00890175
0.161938
-0.00942531
0.163192
-0.00993626
0.164508
-0.0104336
0.165883
-0.0109168
0.167316
-0.0113839
-0.0118391
0.168806
0.150062
-0.00752544
0.150956
-0.00815763
0.151915
-0.0087796
0.152939
-0.00939036
0.154026
-0.00998892
0.155175
-0.0105743
0.156385
-0.0111455
0.157652
-0.0117015
0.158977
-0.0122416
0.160357
-0.0127639
-0.0132727
0.161791
0.14383
-0.00832829
0.144696
-0.00902416
0.145626
-0.00970878
0.146616
-0.0103811
0.147667
-0.0110399
0.148777
-0.0116842
0.149945
-0.0123129
0.151168
-0.0129249
0.152446
-0.0135192
0.153776
-0.0140941
-0.014654
0.155157
0.137927
-0.00910915
0.138768
-0.00986575
0.13967
-0.0106101
0.14063
-0.0113411
0.141647
-0.0120574
0.142721
-0.012758
0.14385
-0.0134415
0.145032
-0.014107
0.146265
-0.0147528
0.147549
-0.0153779
-0.0159865
0.148882
0.132332
-0.00987026
0.133151
-0.0106848
0.134027
-0.0114862
0.134959
-0.0122731
0.135946
-0.0130442
0.136986
-0.0137984
0.138079
-0.0145342
0.139223
-0.0152506
0.140415
-0.0159455
0.141656
-0.0166185
-0.0172734
0.142943
0.126285
-0.00973152
0.127028
-0.0106139
0.127827
-0.0114836
0.12868
-0.0123393
0.129587
-0.0131795
0.130546
-0.014003
0.131556
-0.0148082
0.132615
-0.0155938
0.133723
-0.0163588
0.134878
-0.0171005
0.136079
-0.0178192
-0.0185182
0.137324
0.121271
-0.0104065
0.121999
-0.0113422
0.12278
-0.0122646
0.123613
-0.013172
0.124496
-0.0140631
0.12543
-0.0149363
0.126412
-0.0157903
0.127441
-0.0166234
0.128517
-0.0174348
0.129638
-0.0182208
0.130802
-0.0189832
-0.0197245
0.132008
0.116513
-0.011071
0.117229
-0.0120575
0.117994
-0.01303
0.118809
-0.0139867
0.119672
-0.0149263
0.120583
-0.015847
0.12154
-0.0167475
0.122542
-0.0176258
0.123589
-0.0184815
0.124678
-0.0193097
0.125809
-0.020114
-0.0208956
0.12698
0.111999
-0.0117271
0.112703
-0.012762
0.113455
-0.0137821
0.114254
-0.0147859
0.1151
-0.0157717
0.115991
-0.0167376
0.116926
-0.0176826
0.117904
-0.0186041
0.118925
-0.0195023
0.119986
-0.0203707
0.121087
-0.0212151
-0.0220356
0.122227
0.107714
-0.0123767
0.108409
-0.0134576
0.10915
-0.0145233
0.109936
-0.0155719
0.110766
-0.0166017
0.11164
-0.017611
0.112556
-0.0185985
0.113513
-0.0195613
0.114511
-0.0205004
0.115547
-0.0214073
0.116623
-0.0222907
-0.023149
0.117736
0.103645
-0.0130217
0.104334
-0.0141465
0.105066
-0.0152555
0.105841
-0.0163468
0.106658
-0.0174189
0.107517
-0.0184695
0.108416
-0.0194978
0.109355
-0.0205002
0.110333
-0.0214787
0.111348
-0.0224223
0.112401
-0.0233434
-0.0242382
0.11349
0.0997805
-0.0136638
0.100464
-0.0148304
0.10119
-0.0159808
0.101956
-0.017113
0.102762
-0.0182255
0.103609
-0.0193158
0.104494
-0.0203834
0.105418
-0.0214239
0.10638
-0.0224406
0.107377
-0.0234199
0.108412
-0.024378
-0.0253096
0.109484
0.0961084
-0.0143047
0.096789
-0.0155111
0.0975092
-0.016701
0.0982685
-0.0178723
0.0990666
-0.0190236
0.0999029
-0.020152
0.100777
-0.0212578
0.101689
-0.0223354
0.102638
-0.0233899
0.103622
-0.0244039
0.104643
-0.025399
-0.0263679
0.105701
0.0926172
-0.0149456
0.0932961
-0.01619
0.0940129
-0.0174178
0.0947672
-0.0186267
0.0955592
-0.0198155
0.0963881
-0.0209809
0.0972543
-0.022124
0.0981565
-0.0232377
0.0990965
-0.0243299
0.100071
-0.0253783
0.101083
-0.0264111
-0.0274179
0.102133
0.0892964
-0.0155877
0.0899748
-0.0168683
0.0906896
-0.0181327
0.0914407
-0.0193777
0.0922287
-0.0206035
0.0930527
-0.0218049
0.0939143
-0.0229856
0.0948111
-0.0241345
0.0957463
-0.0252651
0.0967147
-0.0263468
0.0977224
-0.0274189
-0.0284632
0.0987677
0.0861362
-0.0162321
0.0868155
-0.0175477
0.0875302
-0.0188474
0.08828
-0.0201275
0.0890661
-0.0213896
0.0898873
-0.0226262
0.0907469
-0.0238452
0.0916412
-0.0250287
0.0925762
-0.0262001
0.0935414
-0.027312
0.0945478
-0.0284252
-0.0295012
0.0955857
0.0831285
-0.0168799
0.0838101
-0.0182293
0.0845266
-0.0195638
0.0852775
-0.0208785
0.0860648
-0.0221769
0.086886
-0.0234473
0.0877457
-0.0247049
0.0886366
-0.0259196
0.0895704
-0.0271339
0.0905275
-0.0282691
0.0915285
-0.0294262
-0.0305156
0.0925429
0.0802671
-0.0175322
0.0809523
-0.0189144
0.0816714
-0.020283
0.0824246
-0.0216316
0.083214
-0.0229663
0.0840363
-0.0242695
0.0848968
-0.0255655
0.0857814
-0.0268042
0.0867067
-0.0280592
0.0876364
-0.0291988
0.0886104
-0.0304002
-0.0314671
0.0895619
0.0775477
-0.0181899
0.078237
-0.0196037
0.0789582
-0.0210042
0.0797111
-0.0223845
0.0804966
-0.0237518
0.0813109
-0.0250838
0.0821593
-0.026414
0.0830231
-0.0276679
0.0839218
-0.0289579
0.0847928
-0.0300698
0.0856979
-0.0313053
-0.0322821
0.0865129
0.0749603
-0.0188506
0.0756499
-0.0202933
0.0763677
-0.0217219
0.0771127
-0.0231295
0.0778819
-0.024521
0.0786706
-0.0258726
0.0794765
-0.0272198
0.0802805
-0.0284719
0.0810987
-0.0297761
0.0818524
-0.0308236
0.0826181
-0.032071
-0.0328452
0.0831812
0.0724861
-0.0195045
0.073163
-0.0209702
0.0738609
-0.0224198
0.0745783
-0.023847
0.0753082
-0.0252509
0.0760458
-0.0266102
0.0767733
-0.0279473
0.0774724
-0.029171
0.0781264
-0.0304301
0.0786626
-0.0313598
0.0791513
-0.0325597
-0.0330012
0.0793073
0.0700948
-0.0201356
0.070739
-0.0216144
0.0713922
-0.023073
0.0720501
-0.0245048
0.0727007
-0.0259016
0.0733366
-0.027246
0.0739256
-0.0285363
0.0744555
-0.0297009
0.074854
-0.0308286
0.0750731
-0.0315789
0.07508
-0.0325666
-0.0325653
0.0746441
0.0677353
-0.0207242
0.0683235
-0.0222025
0.0689031
-0.0236526
0.0694621
-0.0250638
0.0699803
-0.0264197
0.0704352
-0.0277009
0.0707797
-0.0288808
0.070993
-0.0299142
0.0709654
-0.0308011
0.0707165
-0.0313299
0.0700201
-0.0318702
-0.0313776
0.0688324
0.065365
0.0658669
0.0663316
0.0667354
0.0670453
0.0672165
0.0671862
0.0668915
0.0662069
0.0651478
0.0634398
0.0615537
0.221201
-0.000357841
0.221518
-0.000316796
0.221789
-0.000271785
0.22201
-0.000220877
0.2222
-0.000190101
0.222327
-0.000126676
0.222448
-0.000120746
0.222472
-2.3675e-05
0.222503
-3.17278e-05
0.22236
0.000143116
0.222174
0.000185643
0.221679
0.000495043
0.220981
0.000697984
0.219792
0.00118914
0.218179
0.00161336
0.216013
0.00216553
0.213259
0.00275486
0.210457
0.00280106
0.206933
0.00352437
0.204936
0.00199698
0.202443
0.00249327
0.203434
-0.000990899
0.20773
-0.00429581
0.212328
-0.00459824
0.217781
-0.00545325
0.218163
-0.000382151
0.21856
-0.000396722
0.213555
0.00500489
0.206716
0.00683862
-0.00243739
0.211089
-0.000693099
0.211382
-0.000610207
0.211631
-0.000520567
0.21183
-0.000420078
0.212002
-0.00036174
0.212115
-0.000239407
0.212229
-0.000234852
0.212255
-4.95593e-05
0.2123
-7.67325e-05
0.212185
0.000257483
0.212039
0.000332501
0.211599
0.000934261
0.210959
0.00133844
0.209834
0.00231425
0.208284
0.00316338
0.206164
0.00428518
0.20347
0.00544877
0.200678
0.00559295
0.197176
0.00702685
0.195137
0.00403615
0.192486
0.00514393
0.193436
-0.00194114
0.197934
-0.00879321
0.202714
-0.00937859
0.208127
-0.0108658
0.208559
-0.000814767
0.208837
-0.000674186
0.203688
0.0101539
0.196696
0.0138301
-0.0046524
0.201615
-0.00100198
0.201878
-0.00087374
0.202096
-0.000738202
0.202264
-0.000587717
0.202408
-0.000506372
0.202499
-0.000329772
0.202604
-0.000339961
0.202634
-7.95236e-05
0.202703
-0.000146247
0.202636
0.000325127
0.20255
0.000417637
0.202196
0.00128902
0.20163
0.00190443
0.200579
0.00336483
0.199075
0.00466751
0.196964
0.00639606
0.194266
0.0081466
0.191397
0.00846239
0.187801
0.0106227
0.185607
0.00623
0.182568
0.00818292
0.183461
-0.00283355
0.188522
-0.013855
0.193797
-0.0146529
0.199333
-0.0164021
0.19987
-0.00135199
0.199938
-0.000741763
0.194367
0.0157249
0.186826
0.0213709
-0.00649041
0.192716
-0.00128017
0.192942
-0.00110029
0.19312
-0.000916027
0.193246
-0.000713441
0.193354
-0.000614867
0.193414
-0.000389145
0.193507
-0.000433145
0.193541
-0.000113723
0.193644
-0.000249616
0.19364
0.000329611
0.193639
0.000418709
0.193396
0.00153168
0.192923
0.00237781
0.191959
0.00432897
0.190486
0.00614051
0.18836
0.00852179
0.185602
0.0109046
0.182594
0.0114699
0.178824
0.0143932
0.176361
0.00869261
0.172735
0.0118095
0.173489
-0.0035879
0.179466
-0.0198318
0.185503
-0.0206898
0.191334
-0.0222331
0.191968
-0.00198653
0.191743
-0.000516637
0.185661
0.0218074
0.177178
0.0298531
-0.00761747
0.184336
-0.00152279
0.184518
-0.00128219
0.184647
-0.0010447
0.184719
-0.00078596
0.184781
-0.000676917
0.1848
-0.000407525
0.184876
-0.000509421
0.184913
-0.000150892
0.185059
-0.000395358
0.185134
0.000254873
0.18524
0.000312599
0.185138
0.00163358
0.184778
0.00273789
0.183914
0.00519297
0.182459
0.00759567
0.180307
0.0106738
0.177436
0.0137753
0.174256
0.0146501
0.170259
0.0183894
0.167414
0.0115384
0.163011
0.0162125
0.163492
-0.00406879
0.170719
-0.0270588
0.177766
-0.0277371
0.184081
-0.0285482
0.184741
-0.00264613
0.184122
0.000102338
0.177662
0.0282674
0.167839
0.0396762
-0.00748769
0.17643
-0.00172429
0.176559
-0.00141088
0.176628
-0.00111363
0.176635
-0.00079265
0.176638
-0.000680315
0.176604
-0.000373009
0.176656
-0.000561839
0.176694
-0.000188528
0.176889
-0.000590354
0.177059
8.44078e-05
0.177297
7.44771e-05
0.177367
0.0015641
0.177146
0.00295909
0.176394
0.00594428
0.174947
0.00904291
0.172764
0.0128573
0.169733
0.0168059
0.166365
0.0180177
0.162124
0.0226308
0.158784
0.0148784
0.153414
0.0215828
0.153428
-0.00408294
0.162181
-0.0358125
0.170501
-0.0360566
0.177523
-0.0355706
0.178097
-0.00322001
0.176959
0.00124018
0.170428
0.0347982
0.158915
0.0511899
-0.00549009
0.16896
-0.00187834
0.169026
-0.00147693
0.169023
-0.00111076
0.16895
-0.000719508
0.16888
-0.000610536
0.168779
-0.000272241
0.168798
-0.000580617
0.168832
-0.000222712
0.169082
-0.000840293
0.169366
-0.000199165
0.169763
-0.000322685
0.170037
0.00128949
0.169987
0.00300952
0.169357
0.00657447
0.167913
0.0104867
0.165691
0.0150788
0.162463
0.020034
0.158903
0.0215779
0.154434
0.0270999
0.150508
0.0188045
0.143972
0.0281191
0.143228
-0.00333889
0.153609
-0.046194
0.16352
-0.0459674
0.171537
-0.0435878
0.17193
-0.00361315
0.170194
0.00297586
0.163862
0.0411306
0.15054
0.0645118
-0.00123208
0.16189
-0.00197801
0.161884
-0.00147024
0.161796
-0.00102267
0.161627
-0.000551138
0.161468
-0.000450941
0.161285
-8.97669e-05
0.161258
-0.000553076
0.161284
-0.000248701
0.161594
-0.0011504
0.162007
-0.00061248
0.162592
-0.000907232
0.163111
0.000770366
0.163269
0.00285129
0.162763
0.00708033
0.161324
0.0119257
0.15905
0.0173525
0.155602
0.0234828
0.151848
0.025332
0.147195
0.0317528
0.142649
0.0233503
0.134762
0.0360064
0.132747
-0.00132451
0.144459
-0.0579054
0.156352
-0.0578607
0.165801
-0.0530367
0.166085
-0.00389775
0.163802
0.00525915
0.157794
0.0471383
0.142843
0.0794631
0.00526335
0.155195
-0.00201587
0.155105
-0.00138022
0.154917
-0.000834711
0.154637
-0.000270868
0.154369
-0.000182653
0.154087
0.000191626
0.153997
-0.000463256
0.154008
-0.000259492
0.15438
-0.00152169
0.154944
-0.00117657
0.155749
-0.00171214
0.156556
-3.71208e-05
0.156964
0.00244323
0.156582
0.00746209
0.155151
0.0133573
0.152801
0.0197025
0.149124
0.0271593
0.145174
0.029282
0.14039
0.0365369
0.135298
0.028442
0.125957
0.045348
0.121842
0.00279009
0.133934
-0.0699968
0.148149
-0.0720764
0.159714
-0.0646018
0.160294
-0.00447762
0.15772
0.00783368
0.152058
0.0528004
0.135886
0.0956348
0.0136018
0.14885
-0.00198417
0.148666
-0.00119598
0.148363
-0.000531739
0.147953
0.000139201
0.147556
0.00021402
0.147154
0.000593362
0.146984
-0.000293435
0.14697
-0.000245635
0.147402
-0.00195365
0.148138
-0.00191247
0.149199
-0.00277277
0.150348
-0.00118583
0.151047
0.00174392
0.15079
0.00771941
0.149362
0.0147846
0.146904
0.0221608
0.143008
0.0310556
0.138856
0.0334338
0.133983
0.0414095
0.12855
0.033875
0.117799
0.0560992
0.110764
0.00982568
0.121692
-0.0809248
0.138117
-0.0885017
0.152546
-0.079031
0.154185
-0.00611642
0.1518
0.0102182
0.146501
0.0580997
0.129645
0.112491
0.0232293
0.142834
-0.00187521
0.142544
-0.00090601
0.142108
-9.5402e-05
0.141555
0.0006918
0.141006
0.000762823
0.140462
0.00113812
0.140191
-2.25919e-05
0.140139
-0.000194168
0.140631
-0.00244567
0.141556
-0.00283692
0.142913
-0.00413017
0.144466
-0.00273864
0.145495
0.00071458
0.145367
0.0078475
0.143926
0.0162256
0.141325
0.0247615
0.137229
0.035152
0.13285
0.0378125
0.127945
0.0463147
0.12244
0.0393797
0.110553
0.0679864
0.100512
0.0198674
0.108854
-0.0892672
0.126426
-0.106073
0.143925
-0.09653
0.147438
-0.00963003
0.145853
0.0118033
0.141012
0.0629406
0.124016
0.129487
0.0336073
0.13713
-0.00168171
0.136724
-0.000499348
0.136141
0.000487672
0.135424
0.00140865
0.134699
0.00148706
0.133989
0.0018483
0.133594
0.000373164
0.133489
-8.91882e-05
0.134039
-0.00299573
0.135163
-0.00396132
0.136865
-0.00583171
0.138896
-0.00476972
0.14029
-0.000680166
0.140301
0.00783682
0.138809
0.0177179
0.136035
0.0275354
0.131762
0.0394253
0.127104
0.0424703
0.122271
0.0511481
0.116892
0.0447584
0.104394
0.0804841
0.0924697
0.0317918
0.0976392
-0.0944367
0.114447
-0.122881
0.134202
-0.116285
0.139992
-0.0154196
0.139738
0.0120571
0.13552
0.0671587
0.118863
0.146144
0.044287
0.131723
-0.0013973
0.131187
3.74615e-05
0.130447
0.00122769
0.129546
0.00230943
0.128622
0.00241075
0.127722
0.00274824
0.127173
0.000922734
0.126997
8.67202e-05
0.1276
-0.00359945
0.128928
-0.00528913
0.131034
-0.00793717
0.133619
-0.00735449
0.135422
-0.00248379
0.135577
0.00768155
0.133978
0.019317
0.131012
0.0305017
0.126567
0.0438703
0.121581
0.047456
0.116955
0.0557739
0.111754
0.04996
0.0992662
0.0929716
0.087276
0.043782
0.0894489
-0.0966096
0.103642
-0.137075
0.124133
-0.136776
0.132076
-0.0233625
0.133424
0.0107083
0.129993
0.0705904
0.114059
0.162078
0.0549266
0.126594
-0.00101207
0.125931
0.000701328
0.125012
0.00214654
0.123909
0.00341208
0.122761
0.00355852
0.121647
0.00386296
0.120917
0.00165196
0.120646
0.000357719
0.121296
-0.00424869
0.122822
-0.00681517
0.125404
-0.0105197
0.128625
-0.0105753
0.130881
-0.00473971
0.131178
0.00738426
0.129408
0.0210876
0.12624
0.0336697
0.121594
0.0485155
0.116283
0.052767
0.111966
0.0600912
0.10689
0.0550366
0.0950085
0.104853
0.0842491
0.0545415
0.0839469
-0.0963075
0.0945208
-0.147649
0.114319
-0.156573
0.124002
-0.0330463
0.126967
0.0077432
0.124434
0.0731242
0.109498
0.177014
0.0652796
0.121739
-0.000524107
0.120933
0.00150695
0.119826
0.00325436
0.118505
0.00473282
0.117109
0.00495464
0.115754
0.00521765
0.114812
0.00259401
0.114431
0.000738886
0.115105
-0.00492322
0.116816
-0.00852592
0.119959
-0.0136625
0.123906
-0.0145221
0.126664
-0.00749765
0.127081
0.00696671
0.125078
0.0230908
0.121698
0.0370499
0.116798
0.0534154
0.111235
0.0583297
0.107225
0.0641014
0.102167
0.0600948
0.0913264
0.115693
0.0822888
0.0635791
0.0800307
-0.0940494
0.0868834
-0.154501
0.105059
-0.174749
0.116011
-0.0439986
0.120456
0.00329909
0.118869
0.0747109
0.10511
0.190773
0.0751777
0.117142
7.02769e-05
0.116187
0.00246173
0.11488
0.00456125
0.113326
0.00628724
0.111658
0.00662206
0.11004
0.00683626
0.108852
0.00378201
0.108343
0.00124758
0.109013
-0.00559349
0.110889
-0.0104013
0.11468
-0.0174537
0.11945
-0.0192916
0.122767
-0.0108154
0.123262
0.00647242
0.120976
0.0253763
0.117358
0.0406675
0.112149
0.0586251
0.106448
0.0640306
0.102647
0.0679024
0.0975134
0.0652282
0.0879911
0.125215
0.0806427
0.0709274
0.0769406
-0.0903472
0.0804674
-0.158028
0.0965151
-0.190797
0.108276
-0.0557595
0.113979
-0.00240364
0.113335
0.0753546
0.100847
0.20326
0.0845138
0.112795
0.000764922
0.111683
0.0035741
0.11017
0.00607471
0.108368
0.00808926
0.106407
0.00858269
0.104502
0.00874094
0.103034
0.0052499
0.102383
0.00189893
0.103008
-0.00621828
0.10502
-0.0124136
0.109537
-0.0219712
0.115237
-0.024991
0.119173
-0.0147516
0.119691
0.00595448
0.117086
0.0279808
0.113188
0.0445655
0.107635
0.0641781
0.101906
0.0697603
0.0981733
0.0716348
0.0929543
0.0704471
0.0848543
0.133315
0.0789581
0.0768236
0.0743026
-0.0856917
0.0750923
-0.158818
0.0887928
-0.204497
0.100926
-0.0678927
0.107622
-0.00909927
0.107873
0.0751035
0.096685
0.214448
0.0932265
0.108682
0.00156631
0.107412
0.00484456
0.105688
0.0077979
0.103626
0.0101516
0.101353
0.0108559
0.0991414
0.0109525
0.0973612
0.0070301
0.0965509
0.00270922
0.097079
-0.00674641
0.0991887
-0.0145233
0.104474
-0.0272569
0.111204
-0.0317202
0.115824
-0.0193714
0.116326
0.00545187
0.113383
0.0309235
0.109155
0.0487941
0.103256
0.0700772
0.0975729
0.0754433
0.0937811
0.0754266
0.0885167
0.0757116
0.0817977
0.140034
0.0770918
0.0815296
0.0718871
-0.080487
0.0705768
-0.157508
0.0819284
-0.215849
0.0940483
-0.0800126
0.101457
-0.0165077
0.102522
0.0740379
0.0926124
0.224358
0.101288
0.104794
0.00247367
0.103367
0.00627167
0.101433
0.00973159
0.0990995
0.0124854
0.0964963
0.0134591
0.0939585
0.0134903
0.0918376
0.00915095
0.0908446
0.0037022
0.0912201
-0.00712182
0.0933672
-0.0166705
0.0993643
-0.0332539
0.107181
-0.0395366
0.112578
-0.0247688
0.113085
0.00494476
0.109822
0.0341866
0.105227
0.0533891
0.0990082
0.076296
0.0934112
0.0810404
0.0894702
0.0793676
0.0842149
0.0809669
0.0787522
0.145497
0.074985
0.0852967
0.0695598
-0.0750618
0.0667433
-0.154691
0.0758923
-0.224998
0.0876888
-0.091809
0.0955372
-0.0243561
0.0973184
0.0722567
0.0886289
0.233047
0.108695
0.101122
0.00348441
0.0995435
0.00785055
0.0974005
0.0118746
0.0947841
0.0151018
0.0918355
0.0164077
0.0889539
0.0163719
0.0864683
0.0116366
0.0852537
0.00491677
0.0854186
-0.00728673
0.0874991
-0.0187509
0.0939682
-0.039723
0.102819
-0.0483876
0.109154
-0.0311039
0.109813
0.00428633
0.106327
0.0376728
0.101373
0.058343
0.0948854
0.0827833
0.089389
0.0865367
0.0852523
0.0835042
0.0800576
0.0861616
0.0756816
0.149873
0.0726536
0.0883248
0.0672606
-0.0696689
0.0634394
-0.15087
0.0706132
-0.232172
0.0818594
-0.103055
0.0899002
-0.0323969
0.0922902
0.0698668
0.0847394
0.240598
0.115463
0.0976558
0.0045963
0.0959326
0.00957383
0.0935824
0.0142247
0.0906716
0.0180126
0.0873642
0.0197151
0.0841215
0.0196146
0.0812513
0.0145068
0.0797593
0.00640876
0.0796418
-0.00716929
0.0814643
-0.0205734
0.0879159
-0.0461746
0.0975879
-0.0580596
0.105107
-0.0386231
0.10626
0.00313322
0.102781
0.0411522
0.0975511
0.0635728
0.0908735
0.0894608
0.0854842
0.091926
0.0811429
0.0878456
0.076049
0.0912556
0.0725793
0.153343
0.0701419
0.0907621
0.0649671
-0.064494
0.060539
-0.146442
0.0659993
-0.237632
0.0765455
-0.113601
0.0845712
-0.0404226
0.0874593
0.0669787
0.0809513
0.247106
0.121618
0.0943743
0.00580771
0.0925163
0.0114318
0.0899603
0.0167808
0.0867428
0.0212301
0.0830651
0.0233928
0.0794428
0.0232368
0.0761755
0.0177742
0.074335
0.00824928
0.0738136
-0.00664795
0.0750488
-0.0218085
0.0807995
-0.0519254
0.0909315
-0.0681916
0.0999362
-0.0476278
0.102123
0.000946228
0.099037
0.0442384
0.0937113
0.0688985
0.0869535
0.0962187
0.0816828
0.0971967
0.0771561
0.0923723
0.0721915
0.0962202
0.0694555
0.156079
0.0675009
0.0927167
0.0626753
-0.0596684
0.0579445
-0.141711
0.0619558
-0.241643
0.0717154
-0.123361
0.0795611
-0.0482683
0.08284
0.0636998
0.0772725
0.252673
0.127196
0.0912347
0.00711599
0.0892556
0.0134109
0.0864946
0.0195418
0.08296
0.0247647
0.0789052
0.0274476
0.0748846
0.0272574
0.0712153
0.0214435
0.0689467
0.0105178
0.0678004
-0.0055016
0.0679929
-0.022001
0.0723993
-0.0563318
0.0826036
-0.078396
0.0933246
-0.0583487
0.0971498
-0.00287898
0.0949503
0.0464379
0.0897976
0.0740512
0.0831033
0.102913
0.0779761
0.102324
0.0733027
0.0970457
0.0684861
0.101037
0.0663307
0.158234
0.0647776
0.0942698
0.0603885
-0.0552793
0.0555826
-0.136905
0.0583958
-0.244457
0.067328
-0.132293
0.0748698
-0.05581
0.0784399
0.0601298
0.0737106
0.257403
0.132236
0.0881585
0.00851943
0.0860778
0.0154915
0.0831159
0.0225037
0.0792625
0.0286182
0.074832
0.0318781
0.0703988
0.0316906
0.0663321
0.0255102
0.0635378
0.0133121
0.0614381
-0.00340194
0.0601565
-0.0207194
0.0629262
-0.0591015
0.072924
-0.0883937
0.0853707
-0.0707955
0.091264
-0.00877229
0.0904345
0.0472674
0.0857658
0.0787199
0.0793031
0.109376
0.0743593
0.107268
0.0695895
0.101815
0.064933
0.105693
0.0632282
0.159939
0.0620136
0.0954844
0.0581112
-0.0513769
0.0533981
-0.132192
0.0552459
-0.246304
0.0633387
-0.140386
0.0704895
-0.0629608
0.0742613
0.0563579
0.0702722
0.261392
0.136783
0.0850239
0.0100084
0.0828676
0.0176478
0.0797198
0.0256515
0.0755649
0.0327732
0.0707733
0.0366697
0.0659304
0.0365335
0.0614778
0.0299628
0.0580175
0.0167724
0.0546204
-4.84622e-06
0.0517083
-0.0178073
0.0530565
-0.0604497
0.0626919
-0.0980291
0.0765416
-0.0846453
0.0846419
-0.0168726
0.0854998
0.0464094
0.0816005
0.0826192
0.0755402
0.115436
0.0708301
0.111978
0.0660201
0.106625
0.0615313
0.110182
0.0601722
0.161298
0.0592448
0.0964117
0.055848
-0.0479801
0.0513491
-0.127693
0.0524413
-0.247397
0.0597016
-0.147646
0.066407
-0.0696663
0.0703021
0.0524629
0.0669616
0.264732
0.14088
0.0816505
0.0115391
0.0794641
0.0198342
0.0761699
0.0289457
0.0717609
0.0371821
0.0666449
0.0417857
0.0614261
0.0417523
0.0565918
0.0347971
0.0522866
0.0210776
0.047407
0.00487471
0.0431487
-0.013549
0.0436724
-0.0609733
0.0528123
-0.107169
0.0674747
-0.0993076
0.0775907
-0.0269886
0.0802446
0.0437556
0.077321
0.0855428
0.0718127
0.120944
0.0673893
0.116401
0.0625955
0.111419
0.0582792
0.114498
0.057185
0.162392
0.0565018
0.0970949
0.053605
-0.0450832
0.0494045
-0.123493
0.0499223
-0.247914
0.0563742
-0.154098
0.0626066
-0.0758987
0.0665572
0.0485123
0.0637812
0.267508
0.144571
0.0777988
0.0130475
0.0756619
0.0219711
0.0723044
0.0323033
0.0677324
0.0417541
0.0623622
0.0471559
0.0568403
0.0472742
0.0516114
0.0400261
0.0463046
0.0263843
0.0400479
0.0111314
0.0351174
-0.0086185
0.0355154
-0.0613713
0.0439727
-0.115626
0.0587212
-0.114056
0.0704464
-0.0387139
0.0748162
0.0393858
0.072974
0.0873851
0.0681294
0.125789
0.0640402
0.120491
0.0593149
0.116145
0.0551742
0.118639
0.0542852
0.163281
0.0538097
0.0975704
0.0513898
-0.0426634
0.0475409
-0.119644
0.0476359
-0.24801
0.053319
-0.159781
0.059071
-0.0816507
0.0630196
0.0445637
0.0607317
0.269796
0.147895
0.0732164
0.0144752
0.0712313
0.0239563
0.0679527
0.0355819
0.0633625
0.0463443
0.0578549
0.0526635
0.0521374
0.0529916
0.0464891
0.0456744
0.0401399
0.0327336
0.0329232
0.0183481
0.0281657
-0.00386107