/*--------------------------------*- C++ -*----------------------------------*\
  =========                 |
  \\      /  F ield         | OpenFOAM: The Open Source CFD Toolbox
   \\    /   O peration     | Website:  https://openfoam.org
    \\  /    A nd           | Version:  7
     \\/     M anipulation  |
\*---------------------------------------------------------------------------*/
FoamFile
{
    version     2.0;
    format      ascii;
    class       volVectorField;
    location    "165";
    object      U;
}
// * * * * * * * * * * * * * * * * * * * * * * * * * * * * * * * * * * * * * //

dimensions      [0 1 -1 0 0 0 0];

internalField   nonuniform List<vector> 
2125
(
(1.39784 -0.0935827 -1.29544e-20)
(1.40063 -0.0879347 -3.77213e-20)
(1.39899 -0.0778714 -6.37816e-21)
(1.34722 -0.0687868 2.63353e-20)
(1.3907 -0.0717281 -3.04975e-21)
(1.39778 -0.061978 3.19197e-20)
(0.995407 -0.0193407 7.5597e-20)
(1.19019 -0.0393312 -1.57002e-19)
(1.31401 -0.0508436 3.18229e-20)
(1.37541 -0.0555076 -2.46361e-20)
(1.39344 -0.0458313 -3.3896e-20)
(0.657462 0.0122083 1.57343e-20)
(0.911414 -0.00468872 -1.28052e-19)
(1.12449 -0.0222895 8.64678e-20)
(1.27165 -0.0333875 -6.71556e-20)
(1.35351 -0.0393376 6.61388e-20)
(1.38494 -0.0293805 -2.91653e-21)
(0.340151 0.0198404 -6.93514e-22)
(0.57042 0.0176081 5.26332e-20)
(0.821663 0.0068798 2.55221e-21)
(1.04897 -0.0071369 -7.03465e-20)
(1.2191 -0.0167176 -2.27224e-21)
(1.32355 -0.023357 -2.88936e-20)
(1.37105 -0.0125571 3.39764e-20)
(0.123328 0.00736283 9.96033e-21)
(0.277374 0.015851 2.7803e-20)
(0.486153 0.0191288 -4.71626e-20)
(0.728365 0.0148846 1.11178e-19)
(0.964375 0.00557101 -7.37299e-22)
(1.15558 -0.00123802 -9.60133e-21)
(1.28415 -0.00780179 -5.73531e-20)
(1.34996 0.00459583 -7.58937e-21)
(0.0897917 -0.00043366 7.85505e-21)
(0.22118 0.00926855 -2.01672e-20)
(0.406819 0.0168421 -2.34255e-20)
(0.634295 0.0189155 -1.52196e-20)
(0.872295 0.01522 -1.14841e-20)
(1.0809 0.0125262 1.35247e-20)
(1.23387 0.00697183 5.557e-20)
(1.32035 0.0220482 4.06528e-20)
(5.33137e-05 -0.0139153 4.26702e-20)
(0.0613876 -0.00932207 -9.83182e-20)
(0.171991 0.00040706 5.49063e-20)
(0.334222 0.0109678 4.81239e-20)
(0.542543 0.0187143 -1.21489e-19)
(0.775298 0.0211908 3.2755e-20)
(0.995644 0.0239541 -2.04607e-21)
(1.17201 0.0204205 2.4055e-20)
(1.27893 0.0395437 -4.54387e-20)
(-0.0159207 -0.0131812 1.20856e-19)
(-0.0100909 -0.0207147 -3.32981e-20)
(0.0377896 -0.0191925 4.84269e-20)
(0.129903 -0.0104453 3.04587e-20)
(0.269653 0.00185027 -1.66525e-20)
(0.456117 0.0142578 3.89932e-20)
(0.676809 0.0229724 -1.65316e-20)
(0.901591 0.0323088 9.22031e-20)
(1.09802 0.0320294 -1.4815e-19)
(1.22649 0.0563959 -4.96041e-20)
(-0.0171314 -0.0153873 -3.55739e-20)
(-0.0181342 -0.0278319 1.33396e-19)
(0.0185563 -0.0299672 -1.04734e-19)
(0.0947008 -0.0230067 -2.99043e-21)
(0.213801 -0.0100648 -4.84579e-20)
(0.377514 0.00581249 5.29292e-20)
(0.580734 0.0203138 5.79819e-20)
(0.801684 0.0368986 -2.88034e-20)
(1.01328 0.0408684 2.38114e-20)
(1.15628 0.0723298 2.87072e-20)
(-0.0180253 -0.01773 7.374e-21)
(-0.0244579 -0.0353434 -3.67332e-20)
(0.00315614 -0.041563 4.54783e-20)
(0.0658868 -0.0369682 -4.26566e-20)
(0.166732 -0.0242382 -5.22089e-20)
(0.308384 -0.00606241 -2.35911e-20)
(0.490799 0.0133972 -8.81374e-20)
(0.699729 0.0369207 5.43678e-20)
(0.921424 0.0473856 9.98593e-20)
(1.06984 0.082527 -3.21266e-20)
(-0.0187424 -0.0203051 2.2813e-20)
(-0.0294215 -0.0433083 1.74485e-20)
(-0.00899972 -0.0538576 -4.13787e-21)
(0.0427283 -0.0519634 -7.41398e-20)
(0.12794 -0.0400371 7.72607e-20)
(0.249359 -0.0205625 8.7025e-20)
(0.409736 0.00288227 3.00668e-20)
(0.600988 0.0313609 -4.16792e-21)
(0.820247 0.0546195 -1.07279e-19)
(1.00148 0.0774267 3.2327e-20)
(-0.0193846 -0.0231902 -6.88323e-20)
(-0.0333386 -0.0517416 -8.65521e-21)
(-0.0185137 -0.0666654 1.82176e-20)
(0.0243326 -0.0675534 5.74492e-21)
(0.0964535 -0.0567441 2.3473e-20)
(0.200071 -0.0367095 -1.40172e-19)
(0.338887 -0.0103065 8.46222e-20)
(0.509981 0.0208588 -1.02396e-19)
(0.714393 0.0584393 7.45518e-20)
(0.925209 0.0774035 9.11484e-20)
(-0.0200087 -0.0264296 3.03719e-20)
(-0.0364575 -0.0605943 -1.92601e-20)
(-0.025955 -0.079728 8.55594e-21)
(0.00974285 -0.0832342 -4.04859e-20)
(0.0709994 -0.073588 5.45217e-21)
(0.15935 -0.0534378 -1.1043e-20)
(0.278235 -0.0250785 -5.31423e-20)
(0.42902 0.00747936 2.79648e-20)
(0.609769 0.0565054 5.69495e-20)
(0.838941 0.0789608 -8.35862e-20)
(-0.0206254 -0.0300241 -4.1887e-20)
(-0.0389503 -0.0697448 -6.09599e-20)
(-0.0318178 -0.0927206 4.77746e-20)
(-0.00196279 -0.0984615 4.62016e-20)
(0.0502028 -0.0897919 -1.14165e-19)
(0.125545 -0.069689 1.14424e-19)
(0.226701 -0.0401986 -1.29166e-19)
(0.358212 -0.00652206 3.65438e-20)
(0.511846 0.0495287 -3.91342e-20)
(0.744285 0.0790257 -6.46307e-20)
(-0.0212057 -0.0339263 2.1552e-20)
(-0.0409136 -0.0789999 4.89004e-20)
(-0.0364941 -0.105269 1.22339e-20)
(-0.0115854 -0.11269 1.33255e-20)
(0.0327719 -0.104632 -8.18568e-22)
(0.0968881 -0.0845138 2.01475e-20)
(0.18257 -0.0544072 3.98711e-20)
(0.296203 -0.0193976 7.72467e-20)
(0.423926 0.039572 -7.68945e-20)
(0.645438 0.0771314 2.88703e-20)
(-0.0216918 -0.0380423 -5.21717e-20)
(-0.04238 -0.0881066 9.72142e-22)
(-0.0402645 -0.116979 1.65257e-20)
(-0.0197542 -0.125411 -2.95722e-20)
(0.017633 -0.117492 5.86451e-20)
(0.0718051 -0.097147 -1.39681e-19)
(0.143975 -0.0666251 7.52609e-20)
(0.241087 -0.0300723 -7.16761e-20)
(0.346616 0.0288619 1.40228e-19)
(0.546875 0.0739121 3.70778e-20)
(-0.0220109 -0.0422394 2.76562e-20)
(-0.0433373 -0.0967709 -5.51374e-20)
(-0.0433068 -0.127459 -1.65987e-20)
(-0.0269092 -0.136191 2.46141e-20)
(0.00400772 -0.127906 4.15599e-20)
(0.0491035 -0.107057 6.77949e-21)
(0.109279 -0.0761147 -2.55041e-20)
(0.191099 -0.0380519 5.98183e-20)
(0.278576 0.0192446 -3.51468e-20)
(0.452027 0.070098 -4.5605e-21)
(-0.0220893 -0.0463563 7.47669e-20)
(-0.0437501 -0.104681 2.04512e-20)
(-0.0457158 -0.136357 3.73319e-21)
(-0.0333161 -0.144697 -5.38466e-20)
(-0.00858723 -0.135578 4.81956e-20)
(0.0280179 -0.113967 1.62157e-20)
(0.0773134 -0.0825259 8.30941e-21)
(0.14499 -0.0432433 -1.85862e-20)
(0.217757 0.011881 2.21904e-20)
(0.363011 0.0662427 3.76448e-20)
(-0.0218643 -0.0502176 -5.55803e-20)
(-0.0435811 -0.111533 3.02535e-20)
(-0.0475299 -0.143377 -3.4893e-21)
(-0.0391001 -0.150707 7.69301e-20)
(-0.0203827 -0.140374 -8.47542e-20)
(0.00817133 -0.117819 2.85675e-20)
(0.047421 -0.0858402 -1.79962e-20)
(0.102079 -0.0457879 -1.65038e-20)
(0.162367 0.00718301 -5.12063e-20)
(0.28084 0.0627245 1.92185e-20)
(-0.0212937 -0.0536478 2.39441e-20)
(-0.0428079 -0.117054 -5.97758e-20)
(-0.0487557 -0.148299 -3.36098e-20)
(-0.0442879 -0.154112 -5.27024e-20)
(-0.0314247 -0.142302 1.46466e-20)
(-0.0105268 -0.118725 -4.5724e-21)
(0.0193623 -0.0862647 -4.59803e-20)
(0.0621231 -0.0459458 -9.73684e-21)
(0.111269 0.00500882 -7.84385e-22)
(0.205781 0.0598453 2.25774e-20)
(-0.0203603 -0.0564855 4.21407e-20)
(-0.0414331 -0.121022 4.28896e-21)
(-0.04939 -0.150986 1.79899e-20)
(-0.0488478 -0.154903 7.91191e-20)
(-0.0416455 -0.141477 7.93381e-20)
(-0.027992 -0.116903 -1.39905e-20)
(-0.00682759 -0.0841061 3.66024e-20)
(0.0251343 -0.0439742 -2.37937e-20)
(0.0639073 0.00493641 -1.45174e-20)
(0.137647 0.0579634 -3.41818e-20)
(-0.0190745 -0.0585952 -5.40148e-20)
(-0.0394899 -0.123279 4.4901e-20)
(-0.0494338 -0.15139 2.27685e-20)
(-0.0527229 -0.153161 -4.48017e-20)
(-0.0509231 -0.138093 -5.08322e-20)
(-0.0440541 -0.112629 1.61719e-20)
(-0.0309645 -0.0796946 1.17643e-21)
(-0.00879023 -0.0400447 7.37682e-20)
(0.0200896 0.00654021 4.51198e-20)
(0.0760743 0.0575409 -1.87368e-20)
(-0.0174717 -0.0598768 2.93792e-20)
(-0.0370407 -0.123744 -1.28838e-20)
(-0.0489018 -0.149541 -4.60738e-20)
(-0.0558552 -0.149039 1.93436e-20)
(-0.0591232 -0.132388 -5.18154e-22)
(-0.0585227 -0.106193 -6.62404e-20)
(-0.0528103 -0.0733407 -4.07626e-21)
(-0.0396319 -0.0344622 -6.74998e-20)
(-0.0200303 0.00986004 -3.11353e-20)
(0.0207014 0.0591059 5.27301e-20)
(-0.0156093 -0.0602714 -3.54011e-20)
(-0.0341722 -0.12241 -2.88282e-21)
(-0.0478261 -0.145547 -2.0482e-21)
(-0.0581998 -0.14274 -4.16801e-20)
(-0.0661234 -0.124625 6.48754e-21)
(-0.0712167 -0.097872 4.03055e-20)
(-0.0722015 -0.0652816 -2.15973e-20)
(-0.0671954 -0.0274217 3.49973e-20)
(-0.0560565 0.0151113 1.63602e-20)
(-0.0292432 0.0625277 -1.88576e-20)
(-0.0135593 -0.059765 2.23604e-20)
(-0.0309895 -0.119342 4.23544e-20)
(-0.0462559 -0.139581 -9.34134e-21)
(-0.0597281 -0.13451 1.96131e-20)
(-0.0718224 -0.115076 1.34539e-20)
(-0.0819807 -0.0879261 -3.29039e-20)
(-0.0889441 -0.0557265 8.19868e-21)
(-0.0911712 -0.0189398 -9.50189e-21)
(-0.0879404 0.0221773 1.21559e-20)
(-0.0736471 0.0677462 -2.39938e-20)
(-0.0114028 -0.0583882 -6.95868e-21)
(-0.027608 -0.114677 -2.72769e-20)
(-0.0442534 -0.131872 3.787e-20)
(-0.0604336 -0.124627 -1.94456e-20)
(-0.0761489 -0.10403 9.08137e-21)
(-0.0906869 -0.0766167 2.75401e-20)
(-0.102842 -0.0448788 -2.35556e-20)
(-0.111338 -0.0091115 -6.25192e-21)
(-0.115347 0.0308029 5.59825e-22)
(-0.111832 0.0750872 2.8796e-20)
(-0.00922272 -0.0562121 -2.05266e-21)
(-0.0241445 -0.108608 -7.99203e-21)
(-0.0418915 -0.122691 -3.31512e-20)
(-0.0603329 -0.113395 6.42555e-21)
(-0.0790649 -0.0917841 5.31887e-21)
(-0.0972433 -0.0642138 -2.24723e-21)
(-0.113733 -0.0329663 -1.59821e-22)
(-0.127474 0.00187039 -9.31842e-21)
(-0.13775 0.0407802 1.30949e-20)
(-0.143117 0.0843225 9.01457e-21)
(-0.00709768 -0.0533426 5.42001e-21)
(-0.0207106 -0.101376 9.71613e-21)
(-0.0392511 -0.112345 2.45805e-20)
(-0.0594661 -0.101138 -1.26439e-20)
(-0.0805698 -0.0786493 -1.10573e-20)
(-0.101603 -0.0510038 -3.8586e-22)
(-0.121503 -0.0202524 2.16227e-20)
(-0.139378 0.0137502 1.01429e-20)
(-0.154675 0.0518039 -9.19046e-21)
(-0.166895 0.094913 -1.03645e-20)
(-0.00509663 -0.0499116 -8.63984e-22)
(-0.0174071 -0.0932525 1.87657e-21)
(-0.0364182 -0.101161 -4.67937e-21)
(-0.0578977 -0.088191 3.36838e-21)
(-0.0807054 -0.0649485 2.84553e-21)
(-0.103776 -0.0372936 2.05242e-21)
(-0.126102 -0.00705272 -4.23841e-21)
(-0.146927 0.0261925 -1.72863e-20)
(-0.165799 0.0634735 -2.78772e-21)
(-0.182724 0.106243 5.51706e-21)
(-0.003275 -0.0460672 1.35213e-21)
(-0.0143201 -0.0845242 -3.40224e-21)
(-0.0334826 -0.0894721 -2.74563e-21)
(-0.0557173 -0.0748952 1.9382e-21)
(-0.0795597 -0.0510127 -2.67073e-21)
(-0.103845 -0.023403 -1.27452e-21)
(-0.127581 0.00632467 1.35692e-21)
(-0.150108 0.0388096 6.6585e-21)
(-0.170999 0.0753259 -2.34232e-21)
(-0.190417 0.117673 2.41148e-21)
(1.08844 -0.00174175 -1.63765e-22)
(1.08909 -0.0017058 4.28424e-22)
(1.08971 -0.00166993 -4.20601e-22)
(1.09032 -0.00163411 1.35274e-22)
(1.09091 -0.00159837 3.25492e-22)
(1.09148 -0.00156262 -6.0759e-25)
(1.09204 -0.00152708 -1.53106e-22)
(1.09258 -0.00149123 -2.44852e-22)
(1.0931 -0.00145656 1.60269e-22)
(1.09361 -0.00141912 -6.83947e-23)
(1.09409 -0.00138946 4.93291e-23)
(1.08946 -0.0051534 -1.25009e-22)
(1.09012 -0.00503779 -3.37524e-23)
(1.09076 -0.00492339 9.42075e-23)
(1.09137 -0.0048102 2.09936e-22)
(1.09197 -0.00469833 -1.79249e-23)
(1.09256 -0.00458759 -5.30672e-23)
(1.09312 -0.00447863 -6.71881e-23)
(1.09367 -0.00436985 2.17467e-22)
(1.0942 -0.00426558 5.5103e-23)
(1.09471 -0.00415426 -5.45988e-23)
(1.0952 -0.00406644 -8.97143e-23)
(1.09133 -0.0084053 -2.12699e-22)
(1.09201 -0.00821077 1.53882e-23)
(1.09267 -0.00801844 2.37768e-23)
(1.09331 -0.00782833 4.66508e-22)
(1.09393 -0.00764062 -6.18293e-22)
(1.09453 -0.00745497 1.6699e-22)
(1.09511 -0.00727239 1.71141e-22)
(1.09568 -0.00709035 9.7396e-23)
(1.09622 -0.00691571 -9.32319e-23)
(1.09676 -0.00673011 -8.04209e-24)
(1.09727 -0.00658195 5.20555e-24)
(1.09398 -0.0115565 2.51712e-22)
(1.09469 -0.0112754 -1.54335e-22)
(1.09537 -0.0109974 4.04108e-22)
(1.09604 -0.0107225 -1.67268e-22)
(1.09669 -0.0104511 -8.07062e-23)
(1.09732 -0.0101826 -4.17364e-22)
(1.09793 -0.00991852 1.63409e-23)
(1.09852 -0.00965549 1.28814e-23)
(1.0991 -0.0094026 1.23993e-22)
(1.09966 -0.00913578 -9.67973e-23)
(1.10021 -0.00891834 1.41681e-22)
(1.09734 -0.014593 2.04808e-22)
(1.09808 -0.0142159 -1.54589e-22)
(1.09881 -0.0138426 -9.24641e-23)
(1.09951 -0.0134733 -5.92756e-23)
(1.10019 -0.0131083 1.98863e-22)
(1.10086 -0.0127473 3.05837e-22)
(1.1015 -0.0123918 -1.39171e-25)
(1.10213 -0.0120379 2.44766e-22)
(1.10274 -0.0116966 -8.88412e-23)
(1.10334 -0.0113392 5.23689e-22)
(1.10393 -0.0110402 -2.57843e-22)
(1.10136 -0.0175407 -2.06722e-22)
(1.10214 -0.0170546 2.54102e-22)
(1.10291 -0.016573 -1.82908e-22)
(1.10366 -0.016096 -5.51134e-22)
(1.10438 -0.0156239 5.47767e-23)
(1.10509 -0.0151564 -3.8537e-22)
(1.10578 -0.0146953 1.89285e-22)
(1.10644 -0.0142363 6.17171e-22)
(1.10709 -0.0137915 -9.16786e-23)
(1.10773 -0.0133295 -5.39568e-22)
(1.10838 -0.0129308 -1.69491e-22)
(1.10599 -0.0204029 5.33451e-23)
(1.10683 -0.0197917 -1.95834e-22)
(1.10765 -0.0191851 5.78554e-22)
(1.10845 -0.0185833 2.68636e-22)
(1.10922 -0.0179867 1.12934e-22)
(1.10998 -0.0173949 1.83546e-22)
(1.11071 -0.0168099 -4.90367e-22)
(1.11142 -0.0162272 -9.40752e-22)
(1.11211 -0.0156593 -3.95459e-22)
(1.11281 -0.0150744 2.5085e-23)
(1.11351 -0.014552 8.93843e-23)
(1.11123 -0.0231903 3.84206e-22)
(1.11213 -0.0224345 2.92633e-22)
(1.11301 -0.021683 3.50751e-22)
(1.11386 -0.0209358 -6.99831e-22)
(1.11469 -0.0201935 8.09972e-22)
(1.1155 -0.0194557 -2.20657e-22)
(1.11628 -0.0187244 7.47544e-22)
(1.11704 -0.0179952 -4.07631e-22)
(1.11778 -0.0172797 6.39461e-22)
(1.11853 -0.0165491 8.59396e-22)
(1.11929 -0.0158728 3.27454e-22)
(1.11704 -0.0259105 3.29778e-22)
(1.11801 -0.0249873 2.72098e-23)
(1.11896 -0.0240671 -1.08054e-21)
(1.11988 -0.0231503 3.72114e-22)
(1.12077 -0.0222371 -1.5619e-22)
(1.12163 -0.0213273 -1.04975e-22)
(1.12247 -0.0204225 5.83038e-22)
(1.12329 -0.0195193 -5.36695e-23)
(1.12408 -0.0186265 -6.29299e-22)
(1.1249 -0.0177223 -1.26998e-21)
(1.12573 -0.016855 1.16272e-22)
(1.12343 -0.0285723 -5.6079e-22)
(1.12448 -0.0274554 1.80958e-22)
(1.1255 -0.0263395 1.32994e-21)
(1.1265 -0.0252249 8.28556e-22)
(1.12746 -0.0241116 -9.55722e-22)
(1.12839 -0.0229996 -4.39457e-22)
(1.1293 -0.0218897 -4.69744e-22)
(1.13018 -0.0207803 2.67754e-22)
(1.13102 -0.0196748 4.93428e-22)
(1.13191 -0.0185646 7.42744e-22)
(1.13282 -0.0174622 -2.52651e-22)
(1.1304 -0.0311853 1.18306e-22)
(1.13154 -0.0298451 -1.48847e-21)
(1.13265 -0.0285028 -7.68254e-24)
(1.13373 -0.0271583 -1.16914e-21)
(1.13477 -0.0258117 7.19314e-22)
(1.13578 -0.0244631 1.06763e-21)
(1.13675 -0.0231118 -1.50771e-22)
(1.13771 -0.0217591 -7.79851e-22)
(1.13862 -0.0204003 -3.92207e-22)
(1.13958 -0.0190462 4.56875e-22)
(1.14059 -0.0176574 -4.13167e-22)
(1.13668 -0.0353499 7.43075e-22)
(1.13796 -0.0337602 9.86314e-22)
(1.1392 -0.0321639 -3.51079e-23)
(1.14041 -0.0305608 -1.71216e-21)
(1.14158 -0.028951 -9.32961e-22)
(1.14271 -0.0273338 -7.89413e-22)
(1.14381 -0.0257098 1.26874e-21)
(1.14487 -0.0240762 1.72136e-21)
(1.1459 -0.0224387 6.31151e-22)
(1.14689 -0.0207804 6.18254e-23)
(1.14794 -0.01914 -7.73123e-22)
(1.14905 -0.0174064 1.65706e-21)
(1.14471 -0.0381852 -4.56873e-22)
(1.14612 -0.036309 -1.93639e-21)
(1.14748 -0.0344204 3.15273e-22)
(1.1488 -0.032519 7.0984e-22)
(1.15008 -0.0306046 7.12556e-22)
(1.15132 -0.0286756 -9.04588e-22)
(1.15251 -0.0267336 -1.68455e-21)
(1.15366 -0.0247723 -3.57409e-22)
(1.15479 -0.022804 7.87536e-22)
(1.15586 -0.0207945 1.69713e-21)
(1.15702 -0.0188211 -4.90792e-22)
(1.15826 -0.0166775 -2.29245e-21)
(1.15334 -0.0410446 1.2608e-21)
(1.15489 -0.0388444 3.76217e-22)
(1.15639 -0.0366246 7.68318e-22)
(1.15784 -0.0343839 -1.45117e-22)
(1.15925 -0.0321223 -9.15241e-22)
(1.1606 -0.0298366 6.84398e-23)
(1.16191 -0.0275301 -2.59618e-22)
(1.16317 -0.025191 -1.51887e-21)
(1.1644 -0.0228414 -2.67252e-21)
(1.16557 -0.0204229 -3.53079e-21)
(1.16685 -0.0180646 3.5551e-21)
(1.16824 -0.0154373 7.39555e-23)
(1.16259 -0.0439452 1.86533e-21)
(1.1643 -0.0413809 -7.27623e-22)
(1.16595 -0.0387878 -6.15337e-22)
(1.16756 -0.036164 1.6249e-22)
(1.16911 -0.0335093 9.64233e-22)
(1.1706 -0.0308188 1.82667e-21)
(1.17205 -0.0280977 -1.1377e-21)
(1.17343 -0.0253271 2.07432e-21)
(1.17479 -0.0225424 -8.01889e-22)
(1.17608 -0.0196525 -9.46364e-22)
(1.1775 -0.016854 -3.97842e-21)
(1.17906 -0.0136619 -8.26116e-22)
(1.17247 -0.0469021 -1.46114e-21)
(1.17437 -0.0439311 1.20826e-21)
(1.1762 -0.0409205 2.12349e-21)
(1.17797 -0.0378672 1.15456e-21)
(1.17969 -0.0347713 -6.70238e-22)
(1.18134 -0.031625 -2.77019e-21)
(1.18294 -0.0284369 4.37222e-21)
(1.18447 -0.0251783 -1.18415e-21)
(1.18598 -0.0219027 2.67007e-21)
(1.18741 -0.0184767 -1.96297e-21)
(1.18901 -0.0151846 2.71309e-21)
(1.19079 -0.0113463 2.49555e-21)
(1.18301 -0.0499298 -2.20239e-22)
(1.18511 -0.0465077 -1.5988e-21)
(1.18714 -0.0430333 -2.04257e-21)
(1.18911 -0.0395021 4.14523e-22)
(1.19102 -0.0359145 3.45526e-21)
(1.19285 -0.0322589 -1.96953e-21)
(1.19463 -0.0285488 4.5532e-22)
(1.19633 -0.0247417 -6.40992e-21)
(1.19801 -0.020916 -9.84167e-22)
(1.1996 -0.0168827 4.47239e-21)
(1.20139 -0.0130374 7.55226e-23)
(1.20342 -0.00845852 -5.13566e-21)
(1.1942 -0.0530426 9.53136e-23)
(1.19654 -0.0491229 6.12684e-22)
(1.19881 -0.0451364 2.124e-21)
(1.201 -0.0410766 -1.61648e-21)
(1.20312 -0.036945 -3.64845e-21)
(1.20516 -0.0327248 1.78404e-21)
(1.20714 -0.0284365 1.38476e-21)
(1.20904 -0.0240197 9.39349e-21)
(1.21092 -0.019584 5.209e-22)
(1.21271 -0.0148708 -4.51885e-21)
(1.21474 -0.0104106 7.89664e-22)
(1.21708 -0.00499826 -1.14441e-21)
(1.20608 -0.0562508 -4.08784e-22)
(1.20868 -0.0517856 4.02e-22)
(1.2112 -0.0472378 -4.98123e-22)
(1.21364 -0.0425977 2.5656e-21)
(1.216 -0.0378693 6.89252e-21)
(1.21828 -0.0330281 7.03712e-21)
(1.2205 -0.0281053 -1.05983e-20)
(1.22263 -0.0230168 1.61457e-21)
(1.22475 -0.0179141 5.57417e-21)
(1.22679 -0.0124526 1.12489e-20)
(1.22909 -0.00732392 -1.81383e-21)
(1.23181 -0.000996478 2.66081e-21)
(1.21865 -0.0595606 1.54161e-21)
(1.22154 -0.0545007 9.79101e-22)
(1.22435 -0.0493419 -3.41209e-21)
(1.22706 -0.0440702 -2.1628e-21)
(1.2297 -0.0386939 -2.66987e-21)
(1.23225 -0.0331765 6.26284e-22)
(1.23474 -0.0275657 6.25259e-21)
(1.23714 -0.0217428 -5.37909e-21)
(1.23954 -0.0159176 -2.78775e-21)
(1.24186 -0.00963534 -1.20467e-20)
(1.2445 -0.00378786 3.5087e-21)
(1.24768 0.00354249 1.30702e-20)
(1.23192 -0.0629732 2.98595e-21)
(1.23513 -0.0572691 -8.60414e-22)
(1.23826 -0.0514497 2.02141e-21)
(1.24128 -0.0454939 1.14383e-21)
(1.24424 -0.0394202 -7.5189e-21)
(1.24709 -0.0331728 -1.38567e-20)
(1.24991 -0.0268283 9.82566e-21)
(1.25262 -0.0202131 8.5477e-22)
(1.25536 -0.0136209 -5.64978e-21)
(1.25803 -0.00644258 1.17e-20)
(1.26106 0.000169798 6.35184e-21)
(1.26477 0.00860226 -3.50161e-21)
(1.24591 -0.0664876 -9.23054e-22)
(1.24947 -0.0600898 -1.84333e-21)
(1.25296 -0.0535617 -1.33239e-21)
(1.25632 -0.0468707 -2.35385e-21)
(1.25964 -0.0400511 -4.75249e-21)
(1.26283 -0.0330162 6.68929e-21)
(1.26605 -0.0258926 -1.79476e-20)
(1.2691 -0.0184228 -1.01727e-20)
(1.2723 -0.0110329 5.25193e-21)
(1.27532 -0.00288358 -1.21458e-20)
(1.27885 0.00452002 -1.28814e-20)
(1.28305 0.014174 -1.70145e-20)
(1.26065 -0.070087 -5.13701e-21)
(1.2646 -0.0629489 3.69454e-21)
(1.26849 -0.0556686 3.56997e-21)
(1.27224 -0.048199 -2.17694e-21)
(1.276 -0.0405951 2.32087e-21)
(1.27955 -0.0327219 9.18939e-21)
(1.28325 -0.0247772 2.64037e-20)
(1.28661 -0.0163727 2.20269e-20)
(1.29035 -0.00814372 -1.44488e-20)
(1.2936 0.00108563 1.02287e-20)
(1.29777 0.00929213 1.84435e-21)
(1.30216 0.0203228 1.23353e-20)
(1.2762 -0.0737674 1.89868e-21)
(1.28058 -0.0658418 -8.40437e-21)
(1.28493 -0.0577618 -1.40313e-20)
(1.28909 -0.04947 -9.48331e-21)
(1.29336 -0.0410422 2.52566e-20)
(1.29728 -0.0322931 -1.10648e-20)
(1.30157 -0.0235023 -2.12395e-20)
(1.30511 -0.0141009 -1.28236e-20)
(1.30948 -0.00499906 5.43579e-21)
(1.31251 0.00546506 2.97192e-21)
(1.31735 0.0145093 -1.21697e-20)
(1.32106 0.027161 -1.16093e-20)
(1.29265 -0.0775192 5.07228e-22)
(1.2975 -0.0687636 1.77982e-21)
(1.30234 -0.0598338 8.57265e-21)
(1.30691 -0.0506725 -4.77179e-22)
(1.31166 -0.0413558 -8.9174e-21)
(1.31584 -0.0316777 -1.52281e-20)
(1.32068 -0.0219801 3.71303e-21)
(1.3241 -0.0115394 -2.09265e-22)
(1.32917 -0.00155289 1.43888e-20)
(1.33118 0.0102495 5.47025e-21)
(1.3367 0.02014 1.52473e-20)
(1.33786 0.0347334 6.53931e-22)
(1.31006 -0.081265 5.83612e-21)
(1.31537 -0.071629 3.41479e-22)
(1.32064 -0.0617945 2.38077e-20)
(1.32555 -0.0517212 1.92325e-20)
(1.33063 -0.0414394 -1.7091e-20)
(1.33479 -0.030779 6.86703e-21)
(1.33984 -0.020033 -6.05984e-21)
(1.34244 -0.00847531 5.59895e-21)
(1.3478 0.00255285 -7.74091e-21)
(1.34739 0.0157551 7.98299e-21)
(1.35354 0.0264878 -1.8786e-20)
(1.34914 0.0432337 2.22489e-20)
(1.32828 -0.084811 -1.19259e-20)
(1.3339 -0.0742011 8.82735e-21)
(1.33936 -0.0633759 -2.02097e-20)
(1.34436 -0.0523307 8.80928e-21)
(1.34938 -0.0410192 3.25066e-20)
(1.35318 -0.0293771 8.16973e-21)
(1.35777 -0.0174762 1.40243e-20)
(1.35874 -0.00483052 -4.96474e-21)
(1.36323 0.00755335 8.91972e-22)
(1.35812 0.0221704 -1.36205e-20)
(1.36385 0.0340801 2.5227e-20)
(1.34925 0.0529524 -1.29198e-20)
(1.3469 -0.0880359 3.34551e-21)
(1.35248 -0.0763395 -1.65108e-20)
(1.35769 -0.0644288 1.13989e-21)
(1.36227 -0.0523256 -2.96071e-20)
(1.36648 -0.0399279 -1.89665e-20)
(1.36926 -0.0272994 -1.06404e-20)
(1.37215 -0.014238 3.86703e-23)
(1.37071 -0.000732064 -8.84287e-21)
(1.3723 0.0131046 2.80081e-20)
(1.36054 0.0285899 8.8961e-21)
(1.36304 0.0422666 -1.85439e-20)
(1.33181 0.0626024 -6.8947e-21)
(1.36512 -0.0911477 1.10432e-20)
(1.37022 -0.0783458 3.19504e-21)
(1.37461 -0.0653465 -1.27614e-20)
(1.37808 -0.0521567 2.24541e-20)
(1.38045 -0.0386685 -2.4905e-20)
(1.38098 -0.024974 -8.732e-21)
(1.38003 -0.0107574 5.22002e-21)
(1.37447 0.00359504 -3.74716e-21)
(1.36918 0.0187795 -3.67663e-20)
(1.34953 0.0342266 -3.5857e-20)
(1.34356 0.0497148 1.24677e-20)
(1.29091 0.0688684 -1.32129e-20)
(1.3816 -0.0938401 -3.46889e-21)
(1.38563 -0.0799517 -1.60185e-21)
(1.38844 -0.0658797 6.80884e-21)
(1.38966 -0.0515874 -1.41847e-20)
(1.38874 -0.0369929 3.61618e-20)
(1.38493 -0.0220959 2.80229e-20)
(1.37734 -0.00669705 -1.83425e-20)
(1.36429 0.00888807 2.15809e-20)
(1.34622 0.0253119 2.28643e-20)
(1.31565 0.0410623 9.64818e-21)
(1.28988 0.0579285 4.28404e-21)
(1.21743 0.0724909 3.54962e-20)
(1.09536 -0.00126214 0)
(1.09688 -0.00106416 0)
(1.09858 -0.00087307 0)
(1.09959 -0.000679714 0)
(1.10085 -0.000558888 0)
(1.10149 -0.000358986 0)
(1.10211 -0.000324159 0)
(1.10278 -6.11226e-05 0)
(1.10221 -6.93523e-05 0)
(1.10332 0.000334023 0)
(1.10045 0.000416456 0)
(1.10192 0.00104319 0)
(1.09494 0.00139598 0)
(1.09567 0.00225329 0)
(1.08233 0.00290503 0)
(1.08053 0.00369855 0)
(1.05993 0.00448625 0)
(1.05409 0.00432725 0)
(1.03136 0.00518937 0)
(1.02005 0.00278751 0)
(1.0109 0.00326587 0)
(0.995948 -0.00127543 0)
(1.02014 -0.00513619 0)
(1.03648 -0.00523051 0)
(1.06578 -0.00599581 0)
(1.0952 -0.000382593 0)
(1.06792 -0.000426682 0)
(1.10088 0.00473839 0)
(1.01557 0.00618487 0)
(1.0364 -0.00214676 0)
(1.0965 -0.00368814 0)
(1.09799 -0.00309787 0)
(1.09965 -0.0025307 0)
(1.10058 -0.0019589 0)
(1.10178 -0.00161018 0)
(1.10236 -0.00102545 0)
(1.10295 -0.000943328 0)
(1.10364 -0.000180817 0)
(1.10308 -0.000237396 0)
(1.10434 0.000940686 0)
(1.10152 0.00116612 0)
(1.10325 0.00301611 0)
(1.09633 0.00407263 0)
(1.09725 0.00664155 0)
(1.08381 0.00859923 0)
(1.08198 0.0110254 0)
(1.06089 0.013362 0)
(1.05476 0.0129824 0)
(1.03122 0.0155511 0)
(1.01912 0.00843423 0)
(1.00952 0.0100371 0)
(0.992229 -0.00377423 0)
(1.01861 -0.0156599 0)
(1.03687 -0.0159398 0)
(1.06838 -0.0179801 0)
(1.09819 -0.00120078 0)
(1.07033 -0.00115625 0)
(1.10384 0.0143942 0)
(1.01369 0.0187282 0)
(1.0339 -0.00625336 0)
(1.09863 -0.00594974 0)
(1.10005 -0.00496208 0)
(1.10164 -0.00402402 0)
(1.1024 -0.0030851 0)
(1.1035 -0.00253838 0)
(1.10395 -0.00160075 0)
(1.10448 -0.00153035 0)
(1.1052 -0.000324945 0)
(1.10464 -0.00050474 0)
(1.10621 0.00136908 0)
(1.10349 0.00169049 0)
(1.10573 0.00469368 0)
(1.09895 0.00648266 0)
(1.10024 0.0107687 0)
(1.08666 0.0140925 0)
(1.08469 0.0182691 0)
(1.0628 0.0221459 0)
(1.05595 0.0217639 0)
(1.03108 0.0260439 0)
(1.01729 0.0143663 0)
(1.00698 0.0175742 0)
(0.984903 -0.0061555 0)
(1.01541 -0.0271121 0)
(1.03778 -0.0274759 0)
(1.07329 -0.0300737 0)
(1.10403 -0.00220067 0)
(1.07483 -0.00155124 0)
(1.10935 0.0246919 0)
(1.0106 0.0319428 0)
(1.02866 -0.00989191 0)
(1.10166 -0.00801695 0)
(1.10298 -0.00660776 0)
(1.10443 -0.00529509 0)
(1.10493 -0.00399151 0)
(1.10585 -0.00328653 0)
(1.10612 -0.00203276 0)
(1.10652 -0.00206422 0)
(1.10731 -0.000490093 0)
(1.10672 -0.000911053 0)
(1.10877 0.00154891 0)
(1.10619 0.00190093 0)
(1.10923 0.00596683 0)
(1.10268 0.00856692 0)
(1.10452 0.014597 0)
(1.09082 0.019449 0)
(1.08853 0.0255354 0)
(1.06571 0.0310348 0)
(1.0575 0.0309018 0)
(1.03122 0.0369594 0)
(1.01455 0.020896 0)
(1.00345 0.0264514 0)
(0.973816 -0.00830047 0)
(1.01013 -0.0403505 0)
(1.03951 -0.040492 0)
(1.08016 -0.0426112 0)
(1.11286 -0.00345728 0)
(1.08103 -0.0014448 0)
(1.11705 0.0360142 0)
(1.00755 0.0465447 0)
(1.01978 -0.0126851 0)
(1.10548 -0.00984782 0)
(1.10667 -0.00797868 0)
(1.1079 -0.00628225 0)
(1.10806 -0.00460953 0)
(1.10869 -0.00379743 0)
(1.10873 -0.0022682 0)
(1.10889 -0.00252385 0)
(1.10979 -0.000675895 0)
(1.10911 -0.00150348 0)
(1.11185 0.00140559 0)
(1.10945 0.00169823 0)
(1.11362 0.0067184 0)
(1.10744 0.0102494 0)
(1.11 0.0180754 0)
(1.09627 0.0247188 0)
(1.09339 0.0328791 0)
(1.06972 0.0402045 0)
(1.05925 0.0405408 0)
(1.03192 0.0484913 0)
(1.01097 0.0283509 0)
(0.999055 0.0371855 0)
(0.958702 -0.00993313 0)
(1.00215 -0.0562158 0)
(1.0423 -0.0555704 0)
(1.08868 -0.055989 0)
(1.12517 -0.00488256 0)
(1.08829 -0.000634076 0)
(1.12656 0.0483122 0)
(1.0064 0.0632698 0)
(1.00614 -0.0138606 0)
(1.11006 -0.0114152 0)
(1.11106 -0.00902837 0)
(1.11197 -0.00692875 0)
(1.11167 -0.00487197 0)
(1.11189 -0.00401054 0)
(1.11162 -0.00224954 0)
(1.11143 -0.00288209 0)
(1.11246 -0.000873766 0)
(1.11163 -0.00231888 0)
(1.11527 0.000867635 0)
(1.11311 0.000980256 0)
(1.11877 0.00682559 0)
(1.11316 0.0114412 0)
(1.11666 0.0211517 0)
(1.10299 0.0299461 0)
(1.09925 0.0403231 0)
(1.07489 0.0498201 0)
(1.0611 0.0507517 0)
(1.03338 0.0607475 0)
(1.00674 0.0370564 0)
(0.993821 0.0502844 0)
(0.939299 -0.0106422 0)
(0.990601 -0.0754941 0)
(1.04597 -0.0732835 0)
(1.09862 -0.0706586 0)
(1.14132 -0.0062459 0)
(1.09603 0.00112354 0)
(1.13758 0.0610747 0)
(1.00888 0.0828592 0)
(0.9875 -0.0122817 0)
(1.11533 -0.0126711 0)
(1.11608 -0.00969111 0)
(1.11655 -0.00715803 0)
(1.11568 -0.004694 0)
(1.11533 -0.00384584 0)
(1.11464 -0.00190401 0)
(1.11396 -0.00309265 0)
(1.11512 -0.00106599 0)
(1.11409 -0.00338774 0)
(1.11881 -0.000130675 0)
(1.11705 -0.000355299 0)
(1.12454 0.00615783 0)
(1.11984 0.012031 0)
(1.12448 0.0237837 0)
(1.11097 0.0351598 0)
(1.10613 0.0478796 0)
(1.0812 0.0600259 0)
(1.06308 0.0615539 0)
(1.03569 0.0737326 0)
(1.00232 0.0473157 0)
(0.987806 0.0662884 0)
(0.915476 -0.00986194 0)
(0.97388 -0.0987534 0)
(1.04894 -0.0942795 0)
(1.10957 -0.0871672 0)
(1.16084 -0.00730626 0)
(1.10419 0.00403711 0)
(1.14979 0.0736471 0)
(1.01546 0.105763 0)
(0.965653 -0.00693148 0)
(1.12127 -0.013572 0)
(1.12171 -0.00990419 0)
(1.12158 -0.00689125 0)
(1.11998 -0.00398826 0)
(1.11889 -0.00321432 0)
(1.11764 -0.00115226 0)
(1.11632 -0.0030976 0)
(1.11755 -0.00123175 0)
(1.11629 -0.00473737 0)
(1.12224 -0.0016915 0)
(1.12114 -0.00244977 0)
(1.13078 0.00456623 0)
(1.12748 0.0118796 0)
(1.13347 0.0259498 0)
(1.12021 0.0403645 0)
(1.11407 0.0555792 0)
(1.08853 0.0709239 0)
(1.06532 0.0729494 0)
(1.03873 0.0873392 0)
(0.998253 0.0593385 0)
(0.981402 0.0857541 0)
(0.887498 -0.00668403 0)
(0.948639 -0.125973 0)
(1.04669 -0.11944 0)
(1.1197 -0.106272 0)
(1.1818 -0.00793345 0)
(1.11327 0.00817583 0)
(1.1627 0.0855944 0)
(1.02517 0.131908 0)
(0.944147 0.00253178 0)
(1.12789 -0.0140657 0)
(1.12791 -0.00959706 0)
(1.12703 -0.00603827 0)
(1.1245 -0.00265657 0)
(1.12246 -0.00201088 0)
(1.12046 0.00010355 0)
(1.11833 -0.00282004 0)
(1.11952 -0.00134175 0)
(1.11803 -0.00638075 0)
(1.12532 -0.00391541 0)
(1.12523 -0.00544723 0)
(1.13738 0.00188034 0)
(1.13615 0.0108275 0)
(1.14365 0.027648 0)
(1.13074 0.0455479 0)
(1.12314 0.0634865 0)
(1.09675 0.0825627 0)
(1.06803 0.0849398 0)
(1.04234 0.101396 0)
(0.994954 0.0730896 0)
(0.975657 0.109107 0)
(0.856581 0.000389996 0)
(0.91003 -0.155856 0)
(1.031 -0.149884 0)
(1.12394 -0.129267 0)
(1.20067 -0.00850667 0)
(1.12347 0.0132515 0)
(1.17556 0.0967925 0)
(1.03654 0.160687 0)
(0.926463 0.015688 0)
(1.13517 -0.0140991 0)
(1.13467 -0.00869835 0)
(1.13285 -0.00450459 0)
(1.12916 -0.000614677 0)
(1.12598 -0.000126937 0)
(1.12296 0.00196319 0)
(1.11985 -0.00216875 0)
(1.12081 -0.00135534 0)
(1.11909 -0.00831883 0)
(1.1278 -0.00687715 0)
(1.12919 -0.00947691 0)
(1.14421 -0.00210118 0)
(1.14589 0.00870779 0)
(1.15509 0.0288836 0)
(1.14261 0.0507025 0)
(1.13331 0.0717003 0)
(1.10571 0.0949395 0)
(1.0714 0.0975283 0)
(1.04619 0.115746 0)
(0.992802 0.0881479 0)
(0.97181 0.136376 0)
(0.825445 0.0140065 0)
(0.857219 -0.185276 0)
(0.994162 -0.186178 0)
(1.1148 -0.157998 0)
(1.21272 -0.0104466 0)
(1.13383 0.0184819 0)
(1.18731 0.107281 0)
(1.04847 0.191172 0)
(0.914454 0.0316503 0)
(1.14315 -0.0136175 0)
(1.142 -0.0071352 0)
(1.13902 -0.00218753 0)
(1.13391 0.00227041 0)
(1.12936 0.00257295 0)
(1.12501 0.0045364 0)
(1.1207 -0.00104014 0)
(1.12118 -0.00121684 0)
(1.11924 -0.0105485 0)
(1.12944 -0.0106658 0)
(1.13278 -0.0146971 0)
(1.15124 -0.0076272 0)
(1.15679 0.00535378 0)
(1.16784 0.0296517 0)
(1.15594 0.0558577 0)
(1.14446 0.0803418 0)
(1.11536 0.108005 0)
(1.0756 0.110754 0)
(1.04976 0.130254 0)
(0.992634 0.103754 0)
(0.970111 0.166896 0)
(0.798443 0.036252 0)
(0.801182 -0.210257 0)
(0.938207 -0.226969 0)
(1.08773 -0.1938 0)
(1.21385 -0.0156168 0)
(1.14237 0.0227187 0)
(1.19688 0.117016 0)
(1.06033 0.222435 0)
(0.908249 0.0494017 0)
(1.15186 -0.0125682 0)
(1.14993 -0.00483188 0)
(1.14556 0.00100313 0)
(1.13872 0.00611108 0)
(1.13253 0.00622376 0)
(1.12648 0.00795843 0)
(1.12074 0.000696769 0)
(1.12041 -0.000849781 0)
(1.11826 -0.0130611 0)
(1.13 -0.0153494 0)
(1.13575 -0.0212961 0)
(1.15846 -0.0149667 0)
(1.16887 0.000588684 0)
(1.18208 0.0299216 0)
(1.17084 0.06111 0)
(1.15642 0.0895292 0)
(1.12573 0.121684 0)
(1.08058 0.124732 0)
(1.05244 0.144731 0)
(0.995637 0.119111 0)