/*--------------------------------*- C++ -*----------------------------------*\
  =========                 |
  \\      /  F ield         | OpenFOAM: The Open Source CFD Toolbox
   \\    /   O peration     | Website:  https://openfoam.org
    \\  /    A nd           | Version:  7
     \\/     M anipulation  |
\*---------------------------------------------------------------------------*/
FoamFile
{
    version     2.0;
    format      ascii;
    class       surfaceScalarField;
    location    "385";
    object      phi;
}
// * * * * * * * * * * * * * * * * * * * * * * * * * * * * * * * * * * * * * //

dimensions      [0 3 -1 0 0 0 0];

internalField   nonuniform List<scalar> 
16735
(
-0.000145775
-0.00139569
0.00154147
-0.000500564
-0.00268611
0.00304089
-0.00102343
-0.00293037
0.00345323
-0.00168507
-0.0024213
0.00308294
-0.0024655
-0.00142783
0.00220826
-0.00334928
-0.000112845
0.000996628
-0.00432259
0.00150176
-0.000528451
-0.0053759
0.00351197
-0.00245865
-0.00650663
0.00608188
-0.00495115
0.00945379
-0.00823774
-0.00772268
-0.00014608
-0.00124961
-0.000495267
-0.00233692
-0.00100224
-0.0024234
-0.00163621
-0.00178733
-0.00237716
-0.000686884
-0.00320911
0.000719113
-0.00411568
0.00240832
-0.00508155
0.00447784
-0.00609508
0.00709541
0.0105003
-0.00714162
-0.000142559
-0.00110706
-0.000478092
-0.00200138
-0.000957667
-0.00194382
-0.00154856
-0.00119644
-0.00222945
-5.98736e-06
-0.00298221
0.00147187
-0.0037853
0.00321141
-0.00461415
0.00530669
-0.00544427
0.00792553
0.0112886
-0.00623258
-0.000136149
-0.000970906
-0.000452009
-0.00168553
-0.000895489
-0.00150034
-0.00143127
-0.00066066
-0.00203555
0.000598294
-0.00268649
0.00212282
-0.00335568
0.00388059
-0.0040066
0.00595761
-0.00459984
0.00851877
0.0117496
-0.00506083
-0.000127939
-0.000842967
-0.000420417
-0.00139305
-0.000822314
-0.00109845
-0.00129496
-0.000188013
-0.0018109
0.00111423
-0.0023434
0.00265532
-0.00285608
0.00439328
-0.0032989
0.00640043
-0.00361687
0.00883673
0.0118374
-0.00370462
-0.000119073
-0.000723895
-0.000386887
-0.00112523
-0.000745129
-0.000740205
-0.00115099
0.000217847
-0.0015723
0.00153554
-0.00197658
0.0030596
-0.00231907
0.00473577
-0.00253545
0.00661681
-0.0025554
0.00885669
0.011533
-0.00225097
-0.000110663
-0.000613231
-0.000354881
-0.000881015
-0.000670764
-0.000424322
-0.00101062
0.000557708
-0.00133674
0.00186165
-0.00161032
0.00333318
-0.00177831
0.00490376
-0.00176187
0.00660037
-0.0014732
0.00856801
0.010857
-0.000797274
-0.000103694
-0.000509537
-0.000327455
-0.000657254
-0.000605312
-0.000146465
-0.000884099
0.000836495
-0.00111997
0.00209753
-0.0012676
0.00348081
-0.00126626
0.00490243
-0.00102325
0.00635736
-0.000409953
0.00795471
0.00979874
0.00064834
-9.89281e-05
-0.000410609
-0.000306967
-0.000449216
-0.000553519
0.000100087
-0.00077955
0.00106253
-0.000934833
0.00225281
-0.000967627
0.0035136
-0.000810538
0.00474534
-0.000364954
0.00591177
0.000520307
0.00706945
0.00830846
0.00201058
-9.68214e-05
-0.000313787
-0.000294797
-0.00025124
-0.0005182
0.00032349
-0.000701942
0.00124627
-0.000789389
0.00234026
-0.000722723
0.00344693
-0.000428567
0.00445118
0.000201424
0.00528178
0.00132114
0.00594973
0.00642833
0.00320128
-9.74558e-05
-0.000216331
-0.000291125
-5.75711e-05
-0.000499727
0.000532092
-0.000652093
0.00139863
-0.000685246
0.00237341
-0.000535277
0.00329697
-0.000121062
0.00403697
0.000664156
0.00449656
0.00199455
0.00461933
0.00418847
0.00423441
-0.000100493
-0.000115838
-0.000294771
0.000136707
-0.000495676
0.000732997
-0.000625913
0.00152887
-0.000616035
0.00236353
-0.000396081
0.00307701
0.000118124
0.00352276
0.0010481
0.00356659
0.00257817
0.00308926
0.00159521
0.00517143
-0.000105159
-1.06793e-05
-0.000303186
0.000334734
-0.000500726
0.000930538
-0.000614082
0.00164223
-0.000566558
0.00231601
-0.000280137
0.00279059
0.000337913
0.00290471
0.00141768
0.00248682
0.00317232
0.00133462
-0.0013714
0.00613893
-0.00011028
9.96002e-05
-0.000312592
0.000537046
-0.000506954
0.0011249
-0.000602502
0.00173777
-0.000513448
0.00222695
-0.000149919
0.00242706
0.000595305
0.00215949
0.00186686
0.00121526
0.00392551
-0.000724025
-0.00475703
0.00731114
-0.000114487
0.000214087
-0.000318359
0.000740919
-0.000504567
0.00131111
-0.000573598
0.00180681
-0.000427529
0.00208088
4.08924e-05
0.00195864
0.000962435
0.00123795
0.00250454
-0.000326841
0.00499856
-0.00321805
-0.00861523
0.00885675
-0.000116256
0.000330343
-0.000315557
0.00094022
-0.000483063
0.00147861
-0.00050845
0.00183219
-0.000277589
0.00185002
0.00034099
0.00134006
0.00151062
6.83155e-05
0.00342916
-0.00224538
0.00651048
-0.00629937
-0.0129699
0.0108651
-0.000114226
0.000444568
-0.000299643
0.00112564
-0.000432689
0.00161166
-0.000389496
0.001789
-3.45233e-05
0.00149505
0.000792178
0.000513358
0.00229515
-0.00143466
0.00470499
-0.00465522
0.00849128
-0.0100856
-0.0177739
0.0132953
-0.000107402
0.00055197
-0.000267153
0.00128539
-0.000345874
0.00169038
-0.00020338
0.00164651
0.00032045
0.000971221
0.0014221
-0.000588291
0.00334446
-0.00335702
0.00634971
-0.00766047
0.0108677
-0.0146037
-0.0228956
0.0159895
-9.53205e-05
0.000647291
-0.000216205
0.00140627
-0.000218297
0.00169247
5.76196e-05
0.00137059
0.000799915
0.000228926
0.00224043
-0.00202881
0.00465541
-0.005772
0.00833194
-0.011337
0.013493
-0.0197647
-0.028149
0.0187463
-7.81046e-05
0.000725395
-0.000146694
0.00147486
-4.92537e-05
0.00159503
0.00039427
0.000927065
0.00140189
-0.000778697
0.00323731
-0.00386422
0.00619188
-0.00872657
0.0105557
-0.0157008
0.0162153
-0.0254243
-0.0333804
0.0214467
-5.63939e-05
0.000781789
-6.00192e-05
0.00147849
0.000158545
0.00137647
0.000801814
0.000283797
0.00211567
-0.00209256
0.00438708
-0.00613563
0.00789384
-0.0122333
0.0128457
-0.0206527
0.0187772
-0.0313558
-0.0413487
0.0267455
-3.11925e-05
0.000812982
4.1083e-05
0.00140621
0.000400481
0.00101707
0.00127161
-0.000587328
0.00292436
-0.00374531
0.0056537
-0.00886497
0.00968882
-0.0162684
0.015069
-0.0260329
0.0212286
-0.0375154
-0.0486664
0.0285462
-3.26335e-06
0.000816245
0.000153869
0.00124908
0.000671093
0.000499847
0.00179362
-0.00170985
0.00380823
-0.00575992
0.00699501
-0.0120518
0.0114914
-0.0207648
0.0171192
-0.0316607
0.0232574
-0.0436536
-0.0551665
0.0297576
2.63293e-05
0.000789916
0.000276267
0.000999142
0.00096553
-0.000189416
0.00235813
-0.00310245
0.0047464
-0.00814819
0.00836472
-0.0156701
0.0132125
-0.0256126
0.018902
-0.0373501
0.0247526
-0.0495042
-0.0608812
0.0304673
5.72092e-05
0.000732707
0.000406601
0.00064975
0.00128014
-0.00106296
0.00295636
-0.00477867
0.00571658
-0.0109084
0.00971212
-0.0196656
0.0147695
-0.03067
0.0203309
-0.0429115
0.0257293
-0.0549026
-0.0658191
0.0306672
8.94574e-05
0.000643249
0.000544348
0.000194859
0.00161251
-0.00213112
0.00357979
-0.00674594
0.00669354
-0.0140222
0.010983
-0.0239551
0.0160922
-0.0357792
0.021364
-0.0481833
0.0262118
-0.0597504
-0.0700246
0.0304173
0.000123383
0.000519866
0.000689716
-0.000371474
0.00196077
-0.00340218
0.00421866
-0.00900383
0.00764778
-0.0174513
0.0121237
-0.028431
0.0171311
-0.0407866
0.0219947
-0.0530469
0.0262559
-0.0640116
-0.0735753
0.0298065
0.000159498
0.000360368
0.000843123
-0.0010551
0.0023225
-0.00488156
0.00486031
-0.0115416
0.00854593
-0.0211369
0.0130871
-0.0329722
0.0178607
-0.0455602
0.0222451
-0.0574313
0.0259292
-0.0676957
-0.0765557
0.0289096
0.000198299
0.00016207
0.00100463
-0.00186143
0.00269368
-0.00657061
0.00548831
-0.0143363
0.00935339
-0.025002
0.0138389
-0.0374577
0.0182789
-0.0500002
0.0221554
-0.0613077
0.0253005
-0.0708408
-0.0790521
0.0277969
0.00024009
-7.80206e-05
0.00117348
-0.00279482
0.00306796
-0.00846509
0.00608283
-0.0173511
0.0100384
-0.0289576
0.0143601
-0.0417794
0.0184022
-0.0540423
0.0217745
-0.06468
0.0244339
-0.0735002
-0.0811425
0.0265243
0.000284873
-0.000362893
0.00134776
-0.00385771
0.00343654
-0.0105539
0.00662237
-0.020537
0.0105762
-0.0329114
0.0146475
-0.0458506
0.0182593
-0.0576542
0.021153
-0.0675737
0.0233852
-0.0757325
-0.082894
0.0251367
0.000332309
-0.000695203
0.00152446
-0.00504986
0.00378864
-0.012818
0.00708634
-0.0238347
0.0109516
-0.0367767
0.0147105
-0.0496095
0.0178853
-0.060829
0.0203389
-0.0700272
0.0222008
-0.0775944
-0.0843612
0.023668
0.000381736
-0.00107694
0.00169952
-0.00636764
0.00411241
-0.0152309
0.00745752
-0.0271798
0.0111593
-0.0404785
0.0145679
-0.053018
0.0173174
-0.0635785
0.0193747
-0.0720845
0.0209178
-0.0791376
-0.0855871
0.0221437
0.000432219
-0.00150916
0.00186818
-0.0078036
0.00439615
-0.0177589
0.00772385
-0.0305075
0.011203
-0.0439577
0.0142434
-0.0560584
0.0165912
-0.0659263
0.0182967
-0.0737899
0.0195651
-0.080406
-0.0866043
0.0205823
0.000482628
-0.00199179
0.00202532
-0.00934629
0.00462947
-0.020363
0.00787916
-0.0337572
0.011093
-0.0471716
0.0137633
-0.0587286
0.0157395
-0.0679026
0.0171348
-0.0751853
0.018165
-0.0814362
-0.0874368
0.0189975
0.000531703
-0.00252349
0.00216581
-0.0109804
0.00480422
-0.0230015
0.00792293
-0.0368759
0.0108441
-0.0500928
0.0131535
-0.0610379
0.0147909
-0.06954
0.0159133
-0.0763077
0.0167342
-0.0822571
-0.0881016
0.0173991
0.000578126
-0.00310162
0.00228492
-0.0126872
0.00491504
-0.0256316
0.00785935
-0.0398202
0.0104735
-0.0527069
0.0124385
-0.063003
0.0137696
-0.070871
0.0146511
-0.0771893
0.0152851
-0.0828911
-0.0886109
0.0157944
0.000620584
-0.0037222
0.0023786
-0.0144452
0.00495954
-0.0282125
0.00769608
-0.0425568
0.00999895
-0.0550098
0.0116407
-0.0646447
0.0126959
-0.0719262
0.0133631
-0.0778565
0.013827
-0.0833551
-0.0889727
0.0141888
0.000657833
-0.00438003
0.00244371
-0.0162311
0.0049381
-0.0307069
0.00744307
-0.0450617
0.00943822
-0.0570049
0.0107794
-0.0659859
0.0115863
-0.0727331
0.0120607
-0.0783308
0.012367
-0.0836614
-0.0891925
0.0125868
0.000688751
-0.00506878
0.00247822
-0.0180205
0.00485342
-0.0330821
0.00711146
-0.0473198
0.00880778
-0.0587012
0.00987135
-0.0670495
0.0104539
-0.0733157
0.0107526
-0.0786295
0.0109103
-0.0838192
-0.0892742
0.010992
0.000712386
-0.00578117
0.00248118
-0.0197893
0.00470998
-0.0353109
0.00671276
-0.0493226
0.00812261
-0.0601111
0.00893065
-0.0678575
0.00930944
-0.0736945
0.00944551
-0.0787655
0.009461
-0.0838347
-0.0892202
0.00940706
0.000727985
-0.00650915
0.00245274
-0.0215141
0.00451343
-0.0373716
0.00625829
-0.0510674
0.007396
-0.0612488
0.00796893
-0.0684305
0.00816104
-0.0738866
0.00814466
-0.0787492
0.00802225
-0.0837123
-0.0890318
0.00783382
0.00073502
-0.00724417
0.00239395
-0.023173
0.00427012
-0.0392478
0.0057587
-0.052556
0.00663948
-0.0621296
0.00699574
-0.0687867
0.00701523
-0.0739061
0.00685395
-0.0785879
0.00659666
-0.083455
-0.0887092
0.00627401
0.000733191
-0.00797736
0.00230663
-0.0247465
0.00398664
-0.0409278
0.00522378
-0.0537931
0.00586294
-0.0627687
0.00601887
-0.0689426
0.00587708
-0.0737643
0.00557634
-0.0782871
0.00518623
-0.0830649
-0.088252
0.00472904
0.000722417
-0.00869978
0.00219314
-0.0262172
0.00366953
-0.0424042
0.00466234
-0.0547859
0.00507477
-0.0631812
0.00504467
-0.0689126
0.00475082
-0.0734704
0.0043144
-0.0778507
0.00379205
-0.0825425
-0.08766
0.00320005
0.000702831
-0.00940261
0.0020562
-0.0275706
0.00332502
-0.043673
0.00408211
-0.055543
0.00428193
-0.063381
0.00407829
-0.0687089
0.00364015
-0.0730323
0.00307146
-0.077282
0.00241431
-0.0818854
-0.0869306
0.00168498
0.000674766
-0.0100774
0.00189881
-0.0287946
0.00295896
-0.0447331
0.00348986
-0.0560739
0.00349021
-0.0633813
0.00312375
-0.0683425
0.00254787
-0.0724564
0.00185137
-0.0765855
0.00105899
-0.081093
-0.0860199
0.000148248
0.000638752
-0.0107161
0.00172423
-0.0298801
0.00257673
-0.0455856
0.00289138
-0.0563886
0.00270435
-0.0631943
0.0021842
-0.0678223
0.00147552
-0.0717477
0.000651889
-0.0757619
-0.000253092
-0.080188
-0.0849984
-0.00127458
0.000595454
-0.0113116
0.0015355
-0.0308201
0.00218318
-0.0462333
0.00229166
-0.0564971
0.00192821
-0.0628309
0.00126225
-0.0671564
0.000423473
-0.070909
-0.000523559
-0.0748149
-0.00156899
-0.0791426
-0.0838711
-0.00269627
0.000545648
-0.0118572
0.00133549
-0.03161
0.00178265
-0.0466805
0.00169486
-0.0564093
0.00116487
-0.0623009
0.000359445
-0.0663509
-0.000601785
-0.0699477
-0.00166914
-0.0737475
-0.00284292
-0.0779688
-0.0826159
-0.00409818
0.000490202
-0.0123474
0.00112702
-0.0322468
0.00137901
-0.0469325
0.00110432
-0.0561346
0.000417108
-0.0616137
-0.000520136
-0.0654137
-0.00160123
-0.0688666
-0.0027908
-0.072558
-0.00408737
-0.0766722
-0.081231
-0.00547221
0.000430019
-0.0127775
0.000912823
-0.0327296
0.000975675
-0.0469953
0.000523155
-0.0556821
-0.000312841
-0.0607777
-0.00137647
-0.0643501
-0.00257625
-0.0676668
-0.00388443
-0.0712498
-0.00530279
-0.0752539
-0.0797184
-0.00681542
0.000365956
-0.0131434
0.000695466
-0.0330591
0.00057584
-0.0468757
-4.03103e-05
-0.0550659
-0.00102274
-0.0597952
-0.00220998
-0.0631628
-0.00352494
-0.0663519
-0.00494894
-0.0698258
-0.00648781
-0.073715
-0.0780805
-0.00812571
0.000298969
-0.0134424
0.000477014
-0.0332371
0.000186323
-0.046585
-0.000601931
-0.0542777
-0.00171443
-0.0586827
-0.00301921
-0.061858
-0.00444631
-0.0649248
-0.00598362
-0.0682885
-0.00764108
-0.0720575
-0.0763211
-0.00940048
0.000230749
-0.0136731
0.000259503
-0.0332659
-0.000205302
-0.0461202
-0.00114294
-0.05334
-0.002385
-0.0574407
-0.00380339
-0.0604397
-0.00533968
-0.0633885
-0.00698784
-0.0666403
-0.00876121
-0.0702842
-0.0744463
-0.0106361
0.000161405
-0.0138345
5.58439e-05
-0.0331603
-0.000592329
-0.045472
-0.00167009
-0.0522623
-0.00303378
-0.056077
-0.0045619
-0.0589115
-0.00620448
-0.0617459
-0.00796089
-0.0648839
-0.00984697
-0.0683981
-0.0724604
-0.0118328
8.77856e-05
-0.0139223
-0.000172978
-0.0328996
-0.000965506
-0.0446795
-0.00218018
-0.0510476
-0.00366016
-0.054597
-0.00529422
-0.0572775
-0.00704037
-0.0599998
-0.00890228
-0.063022
-0.0108984
-0.066402
-0.0703604
-0.0129984
6.73307e-06
-0.0139291
-0.000395326
-0.0324975
-0.00132824
-0.0437466
-0.00267188
-0.0497039
-0.00426337
-0.0530055
-0.00600005
-0.0555408
-0.00784773
-0.0581521
-0.00981302
-0.0610567
-0.0119144
-0.0643006
-0.0681448
-0.0141301
-6.29005e-05
-0.0138662
-0.000606475
-0.0319539
-0.00167883
-0.0426742
-0.00314471
-0.0482381
-0.00484272
-0.0513075
-0.00667892
-0.0537046
-0.0086272
-0.0562038
-0.0106964
-0.0589875
-0.0128902
-0.0621068
-0.0658278
-0.0152072
-0.000135278
-0.0137309
-0.000810014
-0.0312792
-0.0020162
-0.0414681
-0.00359809
-0.0466562
-0.0053976
-0.049508
-0.00732993
-0.0517723
-0.00937694
-0.0541568
-0.0115507
-0.0568137
-0.0138622
-0.0597953
-0.0635485
-0.0161415
-0.000207009
-0.0135239
-0.00100657
-0.0304796
-0.00233967
-0.040135
-0.00403149
-0.0449643
-0.00592759
-0.0476119
-0.00795218
-0.0497477
-0.0100925
-0.0520165
-0.0123488
-0.0545574
-0.014685
-0.0574591
-0.0607818
-0.0174517
-0.000277086
-0.0132468
-0.00119587
-0.0295609
-0.00264882
-0.038682
-0.00444453
-0.0431686
-0.00643255
-0.0456239
-0.0085451
-0.0476351
-0.0107706
-0.0497911
-0.0131051
-0.0522229
-0.0155662
-0.0549979
-0.0580283
-0.0183198
-0.00034507
-0.0129017
-0.00137742
-0.0285285
-0.00294327
-0.0371162
-0.00483692
-0.041275
-0.0069122
-0.0435486
-0.00910857
-0.0454388
-0.0114173
-0.0474823
-0.0138431
-0.0497971
-0.0164194
-0.0524216
-0.0552474
-0.0192003
-0.000410645
-0.0124911
-0.00155077
-0.0273884
-0.00322269
-0.0354442
-0.00520841
-0.0392893
-0.00736617
-0.0413908
-0.00964186
-0.0431631
-0.01203
-0.0450942
-0.0145405
-0.0472866
-0.0172034
-0.0497587
-0.0524134
-0.0200374
-0.000473543
-0.0120175
-0.00171549
-0.0261464
-0.0034868
-0.0336729
-0.00555884
-0.0372172
-0.00779435
-0.0391553
-0.0101453
-0.0408121
-0.0126095
-0.0426299
-0.0151999
-0.0446962
-0.0179407
-0.0470179
-0.0495156
-0.0208385
-0.000533525
-0.011484
-0.00187124
-0.0248087
-0.00373537
-0.0318088
-0.00588807
-0.0350645
-0.00819662
-0.0368468
-0.0106186
-0.0383902
-0.0131548
-0.0400937
-0.0158193
-0.0420316
-0.0186323
-0.0442049
-0.0465499
-0.021598
-0.000590376
-0.0108936
-0.00201772
-0.0233814
-0.0039682
-0.0298583
-0.006196
-0.0328367
-0.0085729
-0.0344699
-0.0110616
-0.0359015
-0.0136655
-0.0374898
-0.0163992
-0.0392979
-0.0192805
-0.0413236
-0.0435163
-0.0223141
-0.000643906
-0.0102497
-0.00215469
-0.0218706
-0.00418513
-0.0278279
-0.00648255
-0.0305393
-0.00892314
-0.0320293
-0.0114743
-0.0333503
-0.0141414
-0.0348227
-0.0169396
-0.0364998
-0.0198854
-0.0383778
-0.0404166
-0.022985
-0.000693949
-0.00955576
-0.00228195
-0.0202826
-0.00438606
-0.0257238
-0.00674769
-0.0281777
-0.00924728
-0.0295297
-0.0118565
-0.0307411
-0.0145824
-0.0320968
-0.0174404
-0.0336418
-0.0204468
-0.0353714
-0.0372542
-0.0236093
-0.000740358
-0.00881541
-0.00239932
-0.0186236
-0.00457088
-0.0235522
-0.00699136
-0.0257572
-0.00954528
-0.0269758
-0.012208
-0.0280784
-0.0149882
-0.0293166
-0.0179016
-0.0307284
-0.0209644
-0.0323086
-0.0340329
-0.0241856
-0.000783009
-0.0080324
-0.00250667
-0.0169
-0.00473951
-0.0213193
-0.00721356
-0.0232831
-0.00981709
-0.0243722
-0.0125289
-0.0253666
-0.0153588
-0.0264866
-0.0183229
-0.0277643
-0.0214376
-0.029194
-0.0307574
-0.0247131
-0.000821791
-0.00721061
-0.00260387
-0.0151179
-0.00489191
-0.0190313
-0.00741426
-0.0207608
-0.0100627
-0.0217238
-0.0128189
-0.0226104
-0.0156939
-0.0236116
-0.0187041
-0.0247541
-0.0218659
-0.0260321
-0.0274324
-0.0251909
-0.000856614
-0.00635399
-0.00269084
-0.0132837
-0.00502804
-0.0166941
-0.00759346
-0.0181954
-0.010282
-0.0190353
-0.013078
-0.0198144
-0.0159935
-0.0206962
-0.019045
-0.0217026
-0.0222491
-0.022828
-0.0240631
-0.0256184
-0.000887398
-0.00546659
-0.00276749
-0.0114036
-0.00514786
-0.0143137
-0.00775115
-0.0155921
-0.0104751
-0.0163113
-0.0133063
-0.0169832
-0.0162574
-0.017745
-0.0193453
-0.0186147
-0.0225867
-0.0195867
-0.0206548
-0.0259951
-0.000914077
-0.00455252
-0.00283377
-0.00948389
-0.00525136
-0.0118961
-0.00788733
-0.0129561
-0.0106419
-0.0135568
-0.0135035
-0.0141216
-0.0164855
-0.014763
-0.019605
-0.0154952
-0.0228786
-0.016313
-0.0172127
-0.0263206
-0.000936596
-0.00361592
-0.00288961
-0.00753088
-0.00533851
-0.00944725
-0.00800199
-0.0102926
-0.0107824
-0.0107764
-0.0136696
-0.0112344
-0.0166777
-0.011755
-0.0198238
-0.012349
-0.0231245
-0.0130123
-0.0137424
-0.0265948
-0.000954912
-0.00266101
-0.00293499
-0.0055508
-0.0054093
-0.00697294
-0.00809516
-0.00760677
-0.0108965
-0.007975
-0.0138047
-0.00832618
-0.016834
-0.00872573
-0.0200017
-0.00918133
-0.0233244
-0.00968962
-0.0102493
-0.0268176
-0.000968989
-0.00169202
-0.00296987
-0.00354991
-0.00546373
-0.00447908
-0.00816683
-0.00490367
-0.0109844
-0.0051574
-0.0139087
-0.00540188
-0.0169543
-0.00568015
-0.0201386
-0.005997
-0.0234782
-0.00635007
-0.0067387
-0.0269888
-0.000978802
-0.00071322
-0.00299423
-0.00153448
-0.00550181
-0.0019715
-0.00821701
-0.00218846
-0.011046
-0.00232842
-0.0139816
-0.00246628
-0.0170386
-0.00262314
-0.0202345
-0.00280108
-0.0235858
-0.0029988
-0.00321606
-0.0271084
-0.000984334
0.000271114
-0.00300806
0.000489244
-0.00552352
0.000543953
-0.00824572
0.000533733
-0.0110813
0.000507143
-0.0140234
0.000475829
-0.0170869
0.000440396
-0.0202894
0.000401416
-0.0236473
0.000359062
0.000313182
-0.0271765
-0.000985576
0.00125669
-0.00301136
0.00251502
-0.00552888
0.00306148
-0.00825296
0.00325781
-0.0110903
0.00334445
-0.0140341
0.00341962
-0.0170992
0.00350556
-0.0203033
0.00360548
-0.0236626
0.00371843
0.00384406
-0.0271935
-0.000982528
0.00223922
-0.00300412
0.00453661
-0.0055179
0.00557525
-0.00823874
0.00597866
-0.011073
0.00617869
-0.0140136
0.00636027
-0.0170755
0.00656745
-0.0202761
0.00680607
-0.0236318
0.00707416
0.00737089
-0.0271587
-0.000975198
0.00321442
-0.00298636
0.00654778
-0.00549058
0.00807947
-0.00820309
0.00869117
-0.0110294
0.00900504
-0.0139622
0.00929298
-0.0170159
0.00962115
-0.020208
0.00999816
-0.0235549
0.0104211
0.0108883
-0.0270723
-0.000963601
0.00417802
-0.0029581
0.00854227
-0.00544694
0.0105683
-0.00814601
0.0113902
-0.0109597
0.0118187
-0.0138796
0.0122129
-0.0169203
0.0126618
-0.0200988
0.0131767
-0.0234319
0.0137541
0.0143909
-0.0269345
-0.000947761
0.00512578
-0.00291936
0.0105139
-0.005387
0.013036
-0.00806752
0.0140708
-0.0108637
0.0146149
-0.0137661
0.0151154
-0.0167888
0.0156844
-0.0199488
0.0163368
-0.0232628
0.0170681
0.0178733
-0.0267452
-0.00092771
0.00605349
-0.00287017
0.0124563
-0.00531078
0.0154766
-0.00796764
0.0167276
-0.0107415
0.0173888
-0.0136217
0.0179955
-0.0166215
0.0186843
-0.0197581
0.0194734
-0.0230478
0.0203578
0.02133
-0.0265045
-0.000903492
0.00695698
-0.0028106
0.0143634
-0.00521831
0.0178843
-0.00784638
0.0193557
-0.0105932
0.0201356
-0.0134463
0.0208486
-0.0164186
0.0216565
-0.0195266
0.0225814
-0.022787
0.0236181
0.0247555
-0.0262125
-0.000875156
0.00783214
-0.00274067
0.016229
-0.00510962
0.0202532
-0.00770379
0.0219498
-0.0104189
0.0228507
-0.0132402
0.02367
-0.01618
0.0245963
-0.0192547
0.0256562
-0.0224807
0.0268441
0.0281446
-0.0258697
-0.000842766
0.0086749
-0.00266048
0.0180467
-0.00498475
0.0225775
-0.00753987
0.024505
-0.0102184
0.0255292
-0.0130034
0.0264549
-0.0159061
0.027499
-0.0189426
0.0286927
-0.0221291
0.0300306
0.0314919
-0.0254764
-0.000806395
0.0094813
-0.00257008
0.0198103
-0.00484374
0.0248512
-0.00735466
0.0270159
-0.009992
0.0281666
-0.012736
0.0291989
-0.0155968
0.0303598
-0.0185904
0.0316862
-0.0217327
0.0331729
0.0347922
-0.0250331
-0.000766129
0.0102474
-0.00246958
0.0215138
-0.00468665
0.0270682
-0.00714821
0.0294774
-0.00973966
0.030758
-0.0124381
0.0318973
-0.0152525
0.0331743
-0.0181985
0.0346322
-0.0212919
0.0362663
0.0380409
-0.0245406
-0.000722067
0.0109695
-0.00235909
0.0231508
-0.00451353
0.0292227
-0.00692054
0.0318845
-0.00946147
0.033299
-0.0121098
0.0345457
-0.0148734
0.0359379
-0.0177672
0.0375261
-0.0208074
0.0393064
0.0412335
-0.0239999
-0.000674327
0.0116438
-0.00223874
0.0247152
-0.00432448
0.0313084
-0.00667171
0.0342317
-0.00915749
0.0357847
-0.0117514
0.0371395
-0.0144595
0.038646
-0.0172968
0.0403634
-0.0202795
0.0422892
0.0443662
-0.0234122
-0.000623042
0.0122669
-0.00210869
0.0262009
-0.00411959
0.0333193
-0.00640176
0.0365139
-0.0088278
0.0382108
-0.0113628
0.0396746
-0.0140111
0.0412943
-0.0167873
0.0431396
-0.019709
0.0452108
0.0474361
-0.0227789
-0.000568363
0.0128352
-0.00196913
0.0276017
-0.00389898
0.0352492
-0.00611078
0.0387257
-0.00847249
0.0405725
-0.0109444
0.0421465
-0.0135284
0.0438783
-0.0162388
0.04585
-0.019096
0.048068
0.0504418
-0.0221017
-0.000510465
0.0133457
-0.00182028
0.0289115
-0.00366279
0.0370917
-0.00579884
0.0408617
-0.00809164
0.0428653
-0.0104962
0.044551
-0.0130117
0.0463938
-0.0156513
0.0484896
-0.0184403
0.050857
0.0533846
-0.0213831
-0.000449542
0.0137952
-0.0016624
0.0301243
-0.00341122
0.0388405
-0.00546605
0.0429165
-0.00768533
0.0450846
-0.0100184
0.0468841
-0.0124613
0.0488367
-0.0150241
0.0510524
-0.017739
0.0535719
0.0562709
-0.0206254
-0.000385813
0.014181
-0.00149581
0.0312343
-0.00314448
0.0404892
-0.00511256
0.0448846
-0.00725373
0.0472257
-0.00951133
0.0491417
-0.0118787
0.051204
-0.0143598
0.0535335
-0.0169915
0.0562036
0.0591139
-0.0198345
-0.000319521
0.0145006
-0.00132086
0.0322357
-0.00286282
0.0420311
-0.00473853
0.0467603
-0.00679693
0.0492841
-0.00897449
0.0513193
-0.0112622
0.0534917
-0.0136543
0.0559257
-0.0161691
0.0587185
0.0619415
-0.0189968
-0.000250941
0.0147515
-0.00113799
0.0331227
-0.00256654
0.0434597
-0.00434421
0.048538
-0.00631536
0.0512553
-0.00840881
0.0534127
-0.0106155
0.0556984
-0.0129357
0.0582459
-0.0153259
0.0611087
0.0647952
-0.0181796
-0.000180419
0.0149319
-0.000947647
0.0338899
-0.00225599
0.044768
-0.00392985
0.0502119
-0.00580931
0.0531347
-0.00781435
0.0554178
-0.00993107
0.0578151
-0.0121735
0.0604883
-0.0145481
0.0634833
0.0670795
-0.0168324
-0.000108538
0.0150405
-0.000750206
0.0345316
-0.00193152
0.0459493
-0.00349578
0.0517761
-0.00527891
0.0549179
-0.00719167
0.0573305
-0.00921219
0.0598357
-0.0113505
0.0626266
-0.0136054
0.0657383
0.069438
-0.0159639
-3.71308e-05
0.0150776
-0.00054561
0.0350401
-0.00159363
0.0469973
-0.00304249
0.053225
-0.00472459
0.0566
-0.0065418
0.0591477
-0.00846444
0.0617583
-0.0105001
0.0646622
-0.0126645
0.0679026
0.0717058
-0.0149323
3.80719e-05
0.0150395
-0.00033244
0.0354106
-0.0012431
0.047908
-0.00257062
0.0545525
-0.004147
0.0581763
-0.00586585
0.0608666
-0.00769022
0.0635827
-0.00962518
0.0665972
-0.0116875
0.0699649
0.0738624
-0.0138441
0.000115308
0.0149242
-0.000103948
0.0356298
-0.000881404
0.0486855
-0.00208058
0.0557517
-0.00354676
0.0596425
-0.00516437
0.0624842
-0.00688887
0.0653072
-0.0087217
0.06843
-0.0106782
0.0719214
0.0759109
-0.0127266
0.000187555
0.0147367
0.000110999
0.0357064
-0.000510604
0.0493071
-0.00157285
0.0568139
-0.00292464
0.0609943
-0.0044377
0.0639972
-0.00605991
0.0669294
-0.0077882
0.0701583
-0.00963641
0.0737696
0.077855
-0.0115805
0.000256691
0.01448
0.00031854
0.0356446
-0.000118963
0.0497446
-0.00104923
0.0577442
-0.00228133
0.0622264
-0.00368621
0.0654021
-0.00520365
0.0684468
-0.00682515
0.0717798
-0.0085619
0.0755063
0.0796892
-0.010396
0.000324847
0.0141551
0.000534653
0.0354347
0.000262103
0.0500171
-0.000513791
0.0585201
-0.00161725
0.0633299
-0.00291057
0.0666955
-0.00432069
0.0698569
-0.00583323
0.0732924
-0.0074558
0.0771289
0.0814064
-0.00917302
0.000391419
0.0137637
0.000751626
0.0350745
0.000650531
0.0501182
4.35497e-05
0.0591271
-0.000933318
0.0643067
-0.00211148
0.0678736
-0.0034116
0.071157
-0.00481298
0.0746937
-0.00631931
0.0786352
0.0830028
-0.00791571
0.000455066
0.0133086
0.000967713
0.0345619
0.00104718
0.0500387
0.000600114
0.0595741
-0.000232591
0.0651394
-0.00128963
0.0689307
-0.00247707
0.0723445
-0.00376506
0.0759817
-0.0051537
0.0800239
0.0844761
-0.00662698
0.000514902
0.0127937
0.0011807
0.0338961
0.0014471
0.0497723
0.00117509
0.0598461
0.000487705
0.0658268
-0.000446759
0.0698651
-0.00151825
0.073416
-0.00269038
0.0771539
-0.00396054
0.081294
0.0858242
-0.00530865
0.000570085
0.0122237
0.00138812
0.0330781
0.00184743
0.049313
0.00175885
0.0599347
0.0012248
0.0663609
0.00041875
0.0706712
-0.000537372
0.0743721
-0.00159022
0.0782067
-0.00274132
0.0824452
0.0870458
-0.00396297
0.000619745
0.0116039
0.00158739
0.0321104
0.0022449
0.0486555
0.00234863
0.059831
0.00197666
0.0667329
0.00130572
0.0713421
0.000468449
0.0752094
-0.000469734
0.0791449
-0.00149527
0.0834707
0.0881439
-0.00259333
0.000663049
0.0109409
0.00177586
0.0309976
0.00263583
0.0477956
0.00294139
0.0595254
0.00274071
0.0669335
0.00221062
0.0718722
0.00149875
0.0759212
0.000680354
0.0799633
-0.00020778
0.0843588
0.0891442
-0.00120806
0.000699253
0.0102416
0.00195077
0.0297461
0.00301619
0.0467301
0.00353327
0.0590083
0.00351415
0.0669527
0.00313201
0.0722543
0.00254763
0.0765056
0.00185087
0.0806601
0.00106737
0.0851423
0.0900311
0.000180454
0.000727719
0.00951389
0.00210927
0.0283645
0.00338145
0.045458
0.00411968
0.0582701
0.00429344
0.0667789
0.0040675
0.0724803
0.00361464
0.0769585
0.00303951
0.0812352
0.00238556
0.0857963
0.0907461
0.00167057
0.000747938
0.00876595
0.00224841
0.0268641
0.00372661
0.0439798
0.00469528
0.0573014
0.0050743
0.0663999
0.00501427
0.0725403
0.00469854
0.0772742
0.0042488
0.0816849
0.00372255
0.0863225
0.0913306
0.00313799
0.000759559
0.00800639
0.00236508
0.0252585
0.00404621
0.0422986
0.00525391
0.0560937
0.00585153
0.0658023
0.00596877
0.0724231
0.00579686
0.0774461
0.00547494
0.0820068
0.00507284
0.0867246
0.0917885
0.00461494
0.000762445
0.00724395
0.00245668
0.0235643
0.0043344
0.0404209
0.0057885
0.0546396
0.00661885
0.0649719
0.00692646
0.0721155
0.00690631
0.0774663
0.00671486
0.0821983
0.00643644
0.087003
0.0921215
0.00610346
0.000756659
0.00648729
0.00252088
0.0218001
0.00458508
0.0383567
0.006291
0.0529337
0.0073688
0.0638941
0.00788176
0.0716025
0.00802323
0.0773248
0.00796634
0.0822552
0.00781249
0.0871569
0.0923313
0.00760264
0.000742469
0.00574482
0.00255585
0.0199867
0.004792
0.0361206
0.00675248
0.0509732
0.00809254
0.0625541
0.00882789
0.0708671
0.0091433
0.0770094
0.00922693
0.0821716
0.00919934
0.0871845
0.0924195
0.00911115
0.000720346
0.00502447
0.00256038
0.0181467
0.00494908
0.0337319
0.00716315
0.0487591
0.0087798
0.0609374
0.00975655
0.0698904
0.0102611
0.0765049
0.0104934
0.0819392
0.0105948
0.0870831
0.0923861
0.0106283
0.000690972
0.0043335
0.00253413
0.0163035
0.00505074
0.0312153
0.00751258
0.0462973
0.00941873
0.0590313
0.0106577
0.0686515
0.0113696
0.0757929
0.0117615
0.0815473
0.0119962
0.0868484
0.0922301
0.0121522
0.000655212
0.00367829
0.00247771
0.014481
0.00509235
0.0286006
0.00779
0.0435997
0.00999595
0.0568253
0.0115191
0.0671284
0.01246
0.074852
0.0130259
0.0809814
0.0134004
0.0864739
0.0919503
0.0136801
0.000614088
0.0030642
0.00239276
0.0127023
0.00507073
0.0259226
0.00798481
0.0406856
0.0104966
0.0543135
0.0123263
0.0652987
0.0135213
0.073657
0.0142794
0.0802233
0.0148029
0.0859503
0.0915442
0.0152091
0.000568736
0.00249546
0.00228194
0.0109891
0.00498472
0.0232199
0.00808724
0.0375831
0.0109049
0.0514958
0.0130626
0.0631409
0.0145398
0.0721799
0.0155128
0.0792503
0.0161985
0.0852646
0.0910071
0.0167356
0.000520349
0.00197511
0.00214881
0.00936069
0.00483556
0.0205331
0.00808921
0.0343294
0.0112042
0.0483808
0.0137087
0.0606364
0.0154987
0.0703899
0.0167144
0.0780346
0.0175799
0.0843991
0.0903318
0.0182553
0.000470119
0.00150499
0.00199764
0.00783316
0.00462727
0.0179035
0.00798545
0.0309712
0.0113785
0.0449878
0.0142432
0.0577717
0.0163778
0.0682554
0.017869
0.0765433
0.0189376
0.0833305
0.0895067
0.0197627
0.00041919
0.0010858
0.00183316
0.00641919
0.00436661
0.01537
0.00777461
0.0275632
0.0114132
0.0413492
0.0146432
0.0545417
0.0171533
0.0657453
0.0189575
0.0747392
0.0202589
0.0820291
0.0885152
0.0212504
0.000368612
0.000717193
0.00166028
0.00512752
0.00406279
0.0129675
0.00746035
0.0241657
0.0112972
0.0375123
0.0148852
0.0509537
0.017798
0.0628325
0.019956
0.0725812
0.0215269
0.0804582
0.0873338
0.0227082
0.000319339
0.000397854
0.00148389
0.00396297
0.00372694
0.0107245
0.00705206
0.0208406
0.0110247
0.0335396
0.0149471
0.0470313
0.0182818
0.0594978
0.0208358
0.0700273
0.0227196
0.0785744
0.0859313
0.0241221
0.000272252
0.000125602
0.0013087
0.00292652
0.00337144
0.00866175
0.006565
0.017647
0.0105975
0.0295072
0.0148105
0.0428183
0.018573
0.0557353
0.0215628
0.0670374
0.023809
0.0763282
0.0842664
0.0254738
0.000228209
-0.000102606
0.00113931
0.00201541
0.00300915