/*--------------------------------*- C++ -*----------------------------------*\
  =========                 |
  \\      /  F ield         | OpenFOAM: The Open Source CFD Toolbox
   \\    /   O peration     | Website:  https://openfoam.org
    \\  /    A nd           | Version:  7
     \\/     M anipulation  |
\*---------------------------------------------------------------------------*/
FoamFile
{
    version     2.0;
    format      ascii;
    class       volVectorField;
    location    "385";
    object      U;
}
// * * * * * * * * * * * * * * * * * * * * * * * * * * * * * * * * * * * * * //

dimensions      [0 1 -1 0 0 0 0];

internalField   nonuniform List<vector> 
8500
(
(-0.0016512 -0.0426165 1.0418e-21)
(-0.0114599 -0.077067 -2.99714e-21)
(-0.0304509 -0.0798501 -3.50044e-21)
(-0.0529423 -0.0642454 3.48308e-21)
(-0.077166 -0.0400898 -3.19878e-21)
(-0.101849 -0.0127565 -1.70746e-21)
(-0.126012 0.0162826 2.92488e-21)
(-0.149035 0.0478153 3.58353e-21)
(-0.170402 0.0833558 -5.75218e-22)
(-0.190178 0.124963 1.72871e-21)
(-0.000274138 -0.0384033 -1.15495e-21)
(-0.00897198 -0.0679747 3.56431e-21)
(-0.0275801 -0.0681175 -8.11939e-21)
(-0.0499279 -0.0512401 7.35776e-21)
(-0.0739692 -0.0266733 3.73042e-22)
(-0.0983173 0.000485863 5.48428e-21)
(-0.121966 0.0289167 -9.46846e-21)
(-0.144297 0.0595682 -1.37903e-20)
(-0.164651 0.0941319 -2.59158e-21)
(-0.182697 0.134781 5.88021e-21)
(0.000849277 -0.0341985 9.87777e-22)
(-0.00686237 -0.0590565 7.47635e-21)
(-0.0248873 -0.0567788 1.77631e-20)
(-0.0467133 -0.038824 -1.60654e-20)
(-0.0700359 -0.013984 -3.5161e-21)
(-0.0933472 0.0129062 -3.27768e-21)
(-0.115586 0.0406339 1.65268e-20)
(-0.136102 0.0702638 1.04725e-20)
(-0.154085 0.103647 2.67057e-21)
(-0.168469 0.142955 -1.80484e-20)
(0.00171976 -0.0301123 3.47285e-21)
(-0.00515862 -0.0505139 -4.44512e-21)
(-0.0224688 -0.0460743 -3.22651e-20)
(-0.0434755 -0.0272656 2.94772e-21)
(-0.0656321 -0.00231936 8.89657e-21)
(-0.0873003 0.0241757 -6.72681e-21)
(-0.10734 0.0510727 -7.1814e-22)
(-0.125044 0.0794966 -2.62533e-21)
(-0.139513 0.111444 6.15298e-21)
(-0.148551 0.149003 1.71461e-20)
(0.00234557 -0.0262256 2.34962e-21)
(-0.00388028 -0.0424979 -1.34771e-20)
(-0.0204204 -0.0361928 3.276e-20)
(-0.0404025 -0.016789 -1.4602e-20)
(-0.0610497 0.00805665 -1.07024e-22)
(-0.0805858 0.0339915 2.00235e-20)
(-0.0977754 0.0598941 -9.31907e-21)
(-0.111826 0.0868919 1.15194e-21)
(-0.121897 0.11711 -3.75451e-21)
(-0.124203 0.152518 8.48827e-22)
(0.00273799 -0.0225876 2.79503e-20)
(-0.00304308 -0.0351039 3.42668e-20)
(-0.0188356 -0.0272648 -8.92583e-21)
(-0.0376838 -0.00756537 1.6793e-20)
(-0.0565912 0.0169252 5.01673e-21)
(-0.0736376 0.0420871 -7.55043e-21)
(-0.0874819 0.0667933 -2.80788e-21)
(-0.0972154 0.0921149 -1.1534e-20)
(-0.10228 0.120279 2.48599e-21)
(-0.0968255 0.153237 -1.48352e-20)
(0.00290684 -0.019215 -2.68775e-20)
(-0.00266279 -0.0283708 -1.77465e-20)
(-0.0178029 -0.0193583 1.40821e-20)
(-0.0354998 0.000295876 -2.41885e-20)
(-0.0525492 0.0241244 2.45261e-21)
(-0.066885 0.0482472 2.77219e-20)
(-0.0770585 0.0715115 -4.91899e-21)
(-0.081992 0.0948746 3.17551e-20)
(-0.0816602 0.120597 -1.05385e-21)
(-0.06787 0.151093 -1.20668e-20)
(0.00285666 -0.0160951 2.17242e-20)
(-0.00275773 -0.0222845 -3.94831e-20)
(-0.0174009 -0.0124792 -1.56374e-20)
(-0.034007 0.00675204 1.86843e-20)
(-0.049181 0.0295614 2.90428e-22)
(-0.0607147 0.0523249 -5.15282e-20)
(-0.0670615 0.0738551 -2.68139e-21)
(-0.066909 0.094936 -2.43964e-20)
(-0.0608321 0.117638 -3.06306e-20)
(-0.0385672 0.145852 1.74031e-20)
(0.00258433 -0.0131915 -1.21146e-20)
(-0.00334893 -0.0167864 5.94143e-21)
(-0.0176909 -0.00657624 1.43694e-20)
(-0.0333202 0.0118296 -1.22189e-20)
(-0.0466771 0.0332233 -4.37539e-20)
(-0.0554226 0.0542629 1.51686e-20)
(-0.0579383 0.0737301 2.34804e-21)
(-0.0526725 0.092207 3.57993e-20)
(-0.0404927 0.111301 4.54712e-20)
(-0.00960072 0.136734 -1.99828e-20)
(0.0020786 -0.0104512 1.84398e-20)
(-0.00445721 -0.0117852 1.67709e-20)
(-0.0187063 -0.00154918 -2.45379e-21)
(-0.0334914 0.0156218 6.18563e-20)
(-0.0451233 0.0351841 2.6178e-20)
(-0.0511502 0.0541108 1.93431e-20)
(-0.0499007 0.0711662 2.64449e-20)
(-0.0396465 0.0867263 -1.18254e-20)
(-0.0213994 0.101819 -1.50177e-20)
(0.0186648 0.123164 -2.29343e-20)
(0.00132201 -0.00781538 -2.05526e-21)
(-0.00609667 -0.00717229 -2.61857e-20)
(-0.0204399 0.00273741 -1.8763e-20)
(-0.0344863 0.018282 -3.01398e-20)
(-0.0444612 0.0356066 -2.35044e-20)
(-0.0478222 0.0520349 2.33107e-20)
(-0.0428407 0.0663246 -2.18338e-20)
(-0.0276373 0.0787194 -1.48217e-20)
(-0.00352043 0.0894858 1.85605e-21)
(0.0465776 0.105517 6.48038e-21)
(0.000295405 -0.00522911 -4.94384e-20)
(-0.00826499 -0.00283875 2.38001e-20)
(-0.0228282 0.00643786 1.73259e-20)
(-0.0361602 0.0200102 1.13604e-20)
(-0.0444488 0.0347363 -2.03574e-20)
(-0.0450868 0.0483283 -1.70505e-20)
(-0.0362371 0.0595983 2.41738e-20)
(-0.0158298 0.0686703 -1.90559e-20)
(0.0142718 0.0747762 -1.28349e-21)
(0.0760683 0.0847326 -1.81283e-20)
(-0.00101505 -0.00265266 4.07231e-20)
(-0.0109312 0.00130692 1.65138e-20)
(-0.0257366 0.0097062 1.0353e-21)
(-0.0382381 0.0210346 -2.07364e-20)
(-0.0446241 0.0328857 1.71781e-21)
(-0.0422234 0.0434052 2.19015e-20)
(-0.0290496 0.051542 -6.00784e-21)
(-0.00266955 0.0573124 -6.92256e-21)
(0.0342938 0.0585977 -1.51343e-20)
(0.110842 0.0625144 2.78134e-20)
(-0.00261188 -6.66976e-05 2.67754e-20)
(-0.014024 0.00532345 -4.42565e-20)
(-0.0289491 0.0126759 -3.38539e-20)
(-0.0403037 0.0215865 1.47152e-20)
(-0.0442974 0.0304026 2.96149e-20)
(-0.0381551 0.0377451 2.42002e-20)
(-0.0196481 0.0427846 -2.52015e-20)
(0.0141941 0.0455826 4.74069e-20)
(0.0600372 0.0421363 -1.38119e-20)
(0.155794 0.0414828 -3.14525e-20)
(-0.00447789 0.00251571 -4.07451e-20)
(-0.0174243 0.00922255 2.45924e-20)
(-0.0321649 0.01544 -1.14048e-20)
(-0.0418065 0.0218727 1.18734e-21)
(-0.0425709 0.027632 1.21642e-20)
(-0.0314958 0.0318522 -3.8427e-20)
(-0.00595497 0.0340204 3.28816e-20)
(0.0376684 0.0344347 -3.13833e-20)
(0.0957957 0.0266398 4.81976e-20)
(0.215541 0.0246645 1.67404e-20)
(-0.00656729 0.00504879 8.36428e-21)
(-0.0209579 0.0129636 4.70426e-20)
(-0.0350061 0.0180356 -1.16172e-20)
(-0.0420869 0.0220471 1.18525e-20)
(-0.0383948 0.0248735 1.33497e-20)
(-0.020664 0.0261938 -3.95594e-21)
(0.0143151 0.0259107 2.80572e-20)
(0.070716 0.0246881 1.65255e-21)
(0.145841 0.0133281 -3.0267e-20)
(0.292337 0.0145068 3.95584e-20)
(-0.00880803 0.00746078 -2.2618e-20)
(-0.0244016 0.0164532 -4.43616e-20)
(-0.0370363 0.0204335 3.84727e-20)
(-0.0404208 0.0221874 1.90645e-20)
(-0.0306541 0.0223391 -8.77057e-20)
(-0.00405588 0.0211482 7.03533e-20)
(0.0433366 0.0190035 -6.17717e-20)
(0.11579 0.0169078 1.07699e-21)
(0.213394 0.00350842 -1.28684e-20)
(0.384313 0.0121321 -3.61868e-20)
(-0.0111016 0.00965862 1.93648e-20)
(-0.027492 0.0195528 -2.55058e-21)
(-0.0377881 0.0225377 -9.43316e-21)
(-0.0360782 0.0222841 -1.20328e-21)
(-0.0182799 0.0201444 -5.46893e-21)
(0.01978 0.0169587 -2.23546e-20)
(0.0828602 0.0136894 9.08656e-21)
(0.174467 0.0113528 -1.43498e-20)
(0.299657 -0.00123427 4.42588e-21)
(0.485218 0.0174279 1.1646e-21)
(-0.0133295 0.0115406 -3.95165e-20)
(-0.0299405 0.0220951 -2.78765e-21)
(-0.0367897 0.0241976 4.30736e-21)
(-0.0283668 0.0222487 1.75842e-21)
(-0.000342384 0.0182927 2.86262e-20)
(0.0519781 0.0137297 -8.21908e-20)
(0.133985 0.0101958 5.39242e-20)
(0.247405 0.0080631 -3.96625e-20)
(0.403182 0.00073335 3.18714e-20)
(0.586826 0.0286884 3.35829e-20)
(-0.0153627 0.0130106 -4.79189e-21)
(-0.0314485 0.0239058 2.20806e-20)
(-0.0335893 0.0252314 -2.76581e-20)
(-0.0166743 0.0219342 -8.64543e-21)
(0.02391 0.0166992 1.65366e-20)
(0.0932747 0.0114761 7.81708e-20)
(0.196992 0.00860872 -1.52263e-20)
(0.334271 0.00719644 7.33195e-21)
(0.519405 0.00995487 -3.74707e-20)
(0.684834 0.0395828 1.66996e-20)
(-0.017072 0.0139916 -1.44286e-20)
(-0.0317198 0.024829 -1.12568e-20)
(-0.0277659 0.0254619 2.79849e-21)
(-0.000476041 0.0211811 1.08603e-20)
(0.0550281 0.0152635 -3.20189e-20)
(0.144016 0.0101918 -1.28249e-20)
(0.271344 0.00895997 -3.95846e-20)
(0.433212 0.00941051 3.91349e-20)
(0.639654 0.0238388 4.03211e-20)
(0.783155 0.0398814 -1.63007e-20)
(-0.018337 0.0144352 -6.90793e-21)
(-0.03047 0.0247542 2.81259e-20)
(-0.0189259 0.0247532 -3.14378e-20)
(0.0206813 0.0198725 -3.66168e-21)
(0.0933968 0.0139423 -1.47468e-20)
(0.2042 0.00995289 3.16146e-20)
(0.355892 0.0113797 3.9879e-20)
(0.540649 0.015504 -3.74989e-20)
(0.753191 0.0356696 3.91651e-20)
(0.910032 0.0389802 5.35851e-21)
(-0.0190473 0.0143264 -2.00427e-20)
(-0.0274299 0.0236359 -5.69176e-20)
(-0.0066909 0.0230467 5.55584e-20)
(0.047207 0.0179912 7.99201e-21)
(0.139277 0.0128161 1.15406e-20)
(0.273494 0.0109845 7.08253e-21)
(0.448899 0.0161326 3.0648e-20)
(0.651563 0.025218 2.19833e-20)
(0.862466 0.0475671 -7.61091e-20)
(1.02107 0.052213 -3.63931e-20)
(-0.0191032 0.0136862 -6.8457e-20)
(-0.022334 0.021501 1.37766e-20)
(0.00931009 0.0203918 -3.14835e-20)
(0.0794848 0.0156618 6.09407e-21)
(0.192809 0.0121364 9.74879e-21)
(0.351184 0.0136712 -6.91814e-20)
(0.547913 0.023541 3.02944e-20)
(0.761228 0.0378539 -1.97862e-20)
(0.963502 0.061477 2.05027e-20)
(1.10932 0.0672719 -7.11916e-21)
(-0.0184163 0.0125641 2.48265e-20)
(-0.0149146 0.0184505 2.6909e-20)
(0.0294513 0.0169612 -1.57478e-21)
(0.117866 0.0131684 -8.59193e-21)
(0.253964 0.0123342 2.53791e-22)
(0.436069 0.0184904 5.02204e-22)
(0.649777 0.0337766 -4.5915e-20)
(0.865496 0.0527688 6.14641e-21)
(1.05231 0.0766686 5.53729e-20)
(1.18049 0.0827456 2.44149e-20)
(-0.0168992 0.0110289 -1.68744e-20)
(-0.00490477 0.0146574 -1.24563e-20)
(0.0541033 0.0130461 5.37161e-20)
(0.16263 0.0109493 1.36724e-21)
(0.322429 0.0139787 -2.24507e-20)
(0.526358 0.0258849 5.96384e-20)
(0.750961 0.0467398 1.29643e-20)
(0.960934 0.0693035 7.64005e-22)
(1.12758 0.0924663 -2.43897e-20)
(1.23453 0.0979737 -3.12978e-20)
(-0.0144589 0.00916329 3.54995e-20)
(0.00796163 0.0103545 -9.82408e-21)
(0.083606 0.00903944 -5.87496e-21)
(0.213909 0.00956486 -2.23377e-20)
(0.397477 0.0176911 3.63799e-20)
(0.619679 0.0361241 -1.7674e-20)
(0.848034 0.0620704 -1.97927e-20)
(1.0453 0.0868278 -4.57852e-21)
(1.189 0.108327 -1.42048e-20)
(1.27458 0.112453 1.50426e-20)
(-0.010994 0.00705843 -1.30437e-20)
(0.0239427 0.00581956 -7.7826e-20)
(0.118229 0.00541106 8.07088e-21)
(0.271601 0.00964415 2.78571e-20)
(0.477871 0.0240263 1.9882e-20)
(0.713283 0.0492217 -6.57972e-20)
(0.938134 0.0792557 4.18583e-20)
(1.11754 0.104798 -1.87611e-20)
(1.23751 0.123869 2.78935e-20)
(1.303 0.126166 7.58963e-21)
(-0.0063952 0.00481185 -1.4403e-20)
(0.0432721 0.00136302 2.75831e-20)
(0.158122 0.00267717 3.60956e-20)
(0.335278 0.011817 -2.57986e-20)
(0.561875 0.0333613 9.54681e-21)
(0.80439 0.064947 -5.79792e-20)
(1.01925 0.0977504 -1.07125e-20)
(1.1776 0.1228 8.89665e-21)
(1.27457 0.138894 -2.13061e-20)
(1.32228 0.139117 -2.13873e-20)
(-0.000549689 0.00252729 -1.87071e-20)
(0.0661379 -0.00268146 -6.39331e-21)
(0.203269 0.00137058 -6.55799e-20)
(0.404135 0.0166412 -1.02684e-20)
(0.647391 0.0458344 -1.0225e-21)
(0.890548 0.0829081 3.51082e-21)
(1.09027 0.117064 5.84215e-21)
(1.22617 0.140554 -2.82397e-20)
(1.30188 0.153328 5.26677e-22)
(1.33447 0.151441 1.48455e-20)
(0.0066513 0.00031665 -4.92529e-21)
(0.092659 -0.0059637 2.27935e-20)
(0.253444 0.0020121 3.2103e-20)
(0.476998 0.0245383 2.00676e-20)
(0.732194 0.0613533 -5.88685e-21)
(0.969875 0.102652 -4.91041e-21)
(1.15088 0.136801 4.80556e-20)
(1.26435 0.157901 6.39102e-21)
(1.32114 0.167191 2.11867e-20)
(1.3413 0.163279 -8.96338e-21)
(0.0153028 -0.00169749 4.71089e-20)
(0.122863 -0.00812223 3.03281e-20)
(0.308188 0.0050825 -3.07512e-20)
(0.55239 0.0357535 -6.11885e-21)
(0.814185 0.0796558 3.21871e-21)
(1.04114 0.123738 -1.15983e-20)
(1.20137 0.156673 -2.47942e-20)
(1.29345 0.174777 -4.01843e-21)
(1.33391 0.180561 2.63524e-22)
(1.3441 0.174778 9.77357e-21)
(0.0254759 -0.00338062 5.9418e-21)
(0.156665 -0.00879099 -1.65992e-20)
(0.366805 0.0109944 3.93194e-20)
(0.628658 0.0503487 2.55396e-20)
(0.891592 0.100386 8.32382e-22)
(1.10373 0.145782 1.79376e-20)
(1.2424 0.176484 2.60641e-21)
(1.3148 0.191181 -1.86361e-20)
(1.34151 0.193539 1.55143e-20)
(1.3439 0.186065 3.48961e-23)
(0.0372093 -0.00458674 -3.91154e-20)
(0.193857 -0.00760868 -1.15001e-20)
(0.428385 0.0200664 -1.03378e-20)
(0.704125 0.0682265 -1.79703e-20)
(0.963064 0.123158 4.27816e-21)
(1.1575 0.168467 8.49904e-23)
(1.27486 0.196115 1.37195e-20)
(1.32967 0.207158 -2.28126e-21)
(1.34505 0.206234 -1.60575e-20)
(1.34144 0.197243 -1.46669e-20)
(0.0505013 -0.00516064 3.19906e-21)
(0.234099 -0.00423215 1.87093e-20)
(0.491851 0.0325036 9.0834e-21)
(0.777221 0.0891709 -2.82099e-20)
(1.02769 0.147594 -1.36273e-21)
(1.20269 0.191545 -1.20299e-20)
(1.29971 0.215506 3.02028e-22)
(1.33916 0.222772 5.51296e-21)
(1.34539 0.218743 -6.02273e-21)
(1.33722 0.208384 1.66494e-20)
(0.0653048 -0.00494218 7.57184e-21)
(0.276921 0.00164696 -1.83916e-20)
(0.556022 0.0483896 -4.33363e-20)
(0.846591 0.112889 3.98183e-20)
(1.08495 0.173346 -2.9471e-21)
(1.23976 0.214824 8.69332e-21)
(1.3179 0.234633 -1.17357e-21)
(1.34421 0.238094 8.18158e-21)
(1.34318 0.231147 -6.44381e-22)
(1.33162 0.219529 -1.28838e-20)
(0.0815239 -0.00377203 -1.5472e-20)
(0.321735 0.0102843 2.40304e-20)
(0.619688 0.0676898 1.97475e-20)
(0.911137 0.139046 -2.84752e-20)
(1.13466 0.2001 -4.71987e-21)
(1.2693 0.238159 1.78128e-21)
(1.33034 0.253496 1.77127e-20)
(1.3456 0.253187 8.50577e-22)
(1.33893 0.243502 3.32843e-21)
(1.32486 0.230695 -7.14664e-21)
(0.099013 -0.00149844 1.17427e-20)
(0.367855 0.0218666 -1.05307e-20)
(0.681677 0.0902648 -8.99342e-21)
(0.970038 0.167286 1.53301e-20)
(1.17684 0.227579 5.25607e-21)
(1.29197 0.261436 3.94598e-21)
(1.33781 0.272101 -1.80674e-20)
(1.34396 0.268101 -6.08807e-21)
(1.33297 0.25584 -5.36647e-21)
(1.3171 0.241876 2.35558e-21)
(0.117579 0.0020155 -5.90529e-21)
(0.414525 0.0364993 -1.33126e-22)
(0.740914 0.115887 1.70286e-20)
(1.02273 0.19725 -6.21048e-21)
(1.21171 0.255534 -2.74749e-21)
(1.30842 0.284566 -1.79579e-21)
(1.34099 0.290456 4.3708e-21)
(1.33975 0.282865 7.43899e-21)
(1.32554 0.268168 -2.4044e-22)
(1.30841 0.253045 2.62465e-21)
(0.136985 0.00688468 4.16751e-21)
(0.460949 0.0541994 -1.16864e-21)
(0.79646 0.144261 -3.05921e-21)
(1.06886 0.228583 -2.7641e-21)
(1.2396 0.283742 2.47098e-21)
(1.31927 0.307471 1.90637e-21)
(1.34046 0.308559 -1.74723e-21)
(1.33333 0.297489 6.16846e-22)
(1.31682 0.280469 8.55176e-22)
(1.29885 0.26416 -1.11577e-21)
(0.156956 0.0131953 2.26091e-21)
(0.506326 0.0748948 6.40797e-22)
(0.847531 0.175039 -3.82407e-21)
(1.10826 0.260934 -3.03541e-21)
(1.26089 0.311997 3.14218e-21)
(1.32509 0.330077 6.12167e-22)
(1.33667 0.326394 -1.38402e-21)
(1.32499 0.311959 1.28986e-21)
(1.30689 0.292705 7.03525e-22)
(1.28845 0.275167 -7.86793e-22)
(0.177189 0.0209995 -8.80135e-22)
(0.549882 0.0984277 1.79123e-21)
(0.893504 0.207835 1.18222e-20)
(1.14092 0.293964 -5.23304e-21)
(1.27599 0.340108 -2.5263e-21)
(1.32638 0.352308 -2.80908e-21)
(1.33002 0.343929 5.69265e-21)
(1.31491 0.32624 3.74226e-21)
(1.29584 0.304819 2.92686e-21)
(1.27723 0.286001 1.54436e-21)
(0.197359 0.0303113 1.82072e-20)
(0.590892 0.124563 -9.96687e-21)
(0.933916 0.242241 -1.1271e-20)
(1.16693 0.327342 1.5249e-20)
(1.28533 0.367891 7.94103e-21)
(1.32359 0.374082 -5.14613e-22)
(1.32079 0.361114 -9.47324e-21)
(1.30323 0.340276 -6.72993e-21)
(1.2837 0.316736 -6.79985e-21)
(1.26519 0.296593 3.93634e-21)
(0.217132 0.0411047 -2.4653e-20)
(0.628707 0.152996 2.30998e-20)
(0.968444 0.277832 2.64868e-20)
(1.18645 0.360745 -2.58987e-20)
(1.2893 0.395167 -8.85406e-21)
(1.31711 0.395308 5.57442e-21)
(1.30923 0.377883 9.93294e-21)
(1.29004 0.353991 1.51384e-21)
(1.2705 0.328362 -2.19444e-22)
(1.25235 0.306864 -5.26589e-21)
(0.236174 0.0533129 -3.56746e-21)
(0.662765 0.183367 -3.256e-20)
(0.996896 0.314174 -3.47015e-20)
(1.19972 0.39386 3.85521e-20)
(1.28832 0.421759 -4.34656e-21)
(1.30726 0.415886 7.75189e-21)
(1.29553 0.394157 1.45504e-21)
(1.27542 0.367299 -4.14752e-21)
(1.25621 0.339596 2.21689e-21)
(1.23861 0.316734 -2.37338e-22)
(0.25416 0.0668301 7.23283e-21)
(0.692602 0.215272 2.02101e-20)
(1.01919 0.350832 1.13833e-20)
(1.207 0.426385 -8.95067e-21)
(1.28273 0.44749 -1.3672e-20)
(1.29435 0.435706 -1.24655e-20)
(1.27983 0.409842 -2.44926e-21)
(1.25941 0.380112 6.27323e-21)
(1.24083 0.35036 -1.31538e-21)
(1.22381 0.326115 2.91233e-21)
(0.270784 0.0815143 -2.74061e-20)
(0.717855 0.248273 -2.54221e-20)
(1.03535 0.387374 -3.99398e-21)
(1.20858 0.458025 -4.51231e-21)
(1.27291 0.472181 -9.99929e-21)
(1.27861 0.454647 5.95803e-21)
(1.26227 0.424834 -1.08245e-21)
(1.24208 0.392345 -5.43668e-21)
(1.22438 0.360643 4.89949e-21)
(1.20785 0.334908 -6.60414e-21)
(0.285764 0.0971909 6.52115e-21)
(0.738263 0.281911 2.15398e-20)
(1.04546 0.423375 1.85645e-20)
(1.2048 0.488497 1.9992e-20)
(1.25916 0.495657 4.57153e-22)
(1.26027 0.472579 1.67042e-20)
(1.24297 0.439009 9.71826e-22)
(1.22349 0.40388 -1.8392e-20)
(1.20693 0.370448 1.2719e-20)
(1.1911 0.343053 4.55551e-21)
(0.298856 0.113657 1.77806e-20)
(0.753666 0.31572 3.95248e-20)
(1.04968 0.458423 -5.20929e-21)
(1.19597 0.517527 -2.51481e-20)
(1.24181 0.517739 1.11799e-20)
(1.23953 0.489367 -1.13336e-20)
(1.22201 0.452241 -1.44761e-20)
(1.20369 0.414575 -9.47934e-22)
(1.18843 0.379539 -1.0192e-20)
(1.17382 0.350556 3.72465e-21)
(0.309851 0.130685 8.31155e-21)
(0.763992 0.349236 6.08671e-21)
(1.04823 0.49212 4.871e-20)
(1.18244 0.544849 8.91679e-21)
(1.22115 0.538253 -7.63168e-21)
(1.21657 0.504872 -3.84545e-21)
(1.19954 0.464403 2.17981e-20)
(1.18273 0.424361 1.7204e-20)
(1.16888 0.387763 8.17805e-21)
(1.15589 0.357271 -9.76226e-22)
(0.318585 0.148033 1.71636e-21)
(0.769249 0.382004 -4.03446e-20)
(1.04136 0.52409 -5.72015e-20)
(1.16455 0.570213 1.62782e-21)
(1.19746 0.557025 1.06254e-20)
(1.1916 0.518946 -1.45446e-20)
(1.17567 0.475364 -3.12497e-20)
(1.16066 0.43312 -8.85599e-21)
(1.14842 0.395034 -4.93892e-22)
(1.13725 0.363084 3.10914e-21)
(0.324937 0.165449 -1.43826e-20)
(0.769524 0.413583 3.60506e-20)
(1.02941 0.553982 3.42708e-20)
(1.14265 0.593384 -3.08927e-20)
(1.17099 0.573874 4.74828e-21)
(1.16478 0.531441 3.38379e-20)
(1.15047 0.484996 -6.68371e-21)
(1.13753 0.440735 5.61807e-21)
(1.12711 0.401251 -2.06817e-21)
(1.11794 0.36791 -2.5154e-21)
(0.32883 0.182671 -3.22479e-20)
(0.76498 0.443549 -5.68644e-20)
(1.01274 0.581477 -1.1038e-20)
(1.11709 0.614149 1.78416e-20)
(1.142 0.58863 1.66796e-20)
(1.13629 0.542204 -3.32774e-20)
(1.12407 0.493172 1.69698e-20)
(1.11344 0.447096 -7.49609e-21)
(1.10502 0.406319 5.10544e-21)
(1.09804 0.371679 4.7713e-22)
(0.330237 0.199441 2.4633e-20)
(0.755855 0.471495 1.84102e-21)
(0.991707 0.60628 -5.45274e-21)
(1.08809 0.632272 -2.15916e-20)
(1.11078 0.601155 1.3087e-20)
(1.10632 0.551089 3.20247e-21)
(1.09658 0.499768 -8.64654e-21)
(1.08849 0.452097 2.27957e-21)
(1.08222 0.410141 -6.66909e-22)
(1.07763 0.374316 -8.14018e-22)
(0.329194 0.215508 -6.63508e-21)
(0.742459 0.497068 -9.04231e-21)
(0.966508 0.628079 2.31952e-20)
(1.05605 0.64758 1.05993e-20)
(1.07766 0.611258 -1.38573e-20)
(1.07504 0.557989 1.71162e-20)
(1.06815 0.504675 1.70345e-21)
(1.06279 0.45564 2.4602e-21)
(1.0588 0.412617 3.40547e-21)
(1.05678 0.375727 6.23353e-22)
(0.325782 0.230623 4.27651e-20)
(0.7251 0.520057 3.28294e-20)
(0.937356 0.64652 -2.63213e-21)
(1.02148 0.659888 -4.62746e-21)
(1.04286 0.618815 -5.43053e-21)
(1.04264 0.562778 -2.42087e-21)
(1.03892 0.50779 2.3856e-21)
(1.03645 0.457638 8.25856e-22)
(1.03485 0.413653 -2.80613e-21)
(1.03557 0.375818 -4.72018e-21)
(0.320077 0.244461 3.07305e-21)
(0.70394 0.54018 5.413e-21)
(0.904907 0.661577 -2.88437e-20)
(0.984754 0.668955 1.22486e-20)
(1.00666 0.623725 1.71158e-21)
(1.00933 0.565353 -2.9996e-21)
(1.00903 0.50902 1.35953e-21)
(1.00957 0.458017 1.13791e-21)
(1.01049 0.413179 -4.34733e-21)
(1.01421 0.374535 5.84619e-21)
(0.312096 0.256735 -1.62656e-20)
(0.67922 0.556957 -1.14352e-20)
(0.869753 0.673096 8.50995e-21)
(0.946192 0.674716 1.41408e-21)
(0.96931 0.625881 -4.95009e-21)
(0.97529 0.565616 3.31673e-21)
(0.978617 0.508274 2.71168e-21)
(0.982261 0.456685 -1.09003e-20)
(0.985971 0.411129 2.52563e-20)
(0.993316 0.371908 9.92538e-21)
(0.302045 0.267228 -1.20846e-20)
(0.651406 0.570083 2.81986e-20)
(0.83224 0.680858 -1.70153e-20)
(0.906121 0.677101 -2.96549e-21)
(0.931084 0.6252 -1.45137e-21)
(0.940709 0.563489 -2.44268e-21)
(0.947798 0.505468 -9.07394e-21)
(0.954647 0.453513 4.81443e-21)
(0.961695 0.407319 -1.48845e-21)
(0.973556 0.367978 -4.67058e-21)
(0.290175 0.275907 -1.35484e-21)
(0.620958 0.579447 -8.50779e-21)
(0.79277 0.684673 3.50553e-21)
(0.864888 0.676031 -1.10256e-21)
(0.892243 0.621618 6.10081e-21)
(0.905773 0.558916 5.29914e-21)
(0.916701 0.500552 1.68379e-20)
(0.92692 0.4484 -1.24109e-20)
(0.938018 0.401393 -2.37316e-20)
(0.954226 0.362123 9.88268e-21)
(0.276627 0.282586 -9.59328e-22)
(0.588331 0.584919 -2.5986e-21)
(0.751768 0.684432 1.0222e-21)
(0.822844 0.671443 7.88823e-21)
(0.853052 0.615092 -1.31036e-20)
(0.87068 0.551866 -2.09434e-20)
(0.885513 0.49352 -6.3782e-21)
(0.899352 0.441456 -1.38344e-21)
(0.914946 0.393537 3.10671e-20)
(0.932583 0.350767 -7.05464e-21)
(0.261615 0.287115 1.75589e-21)
(0.553967 0.586394 -3.92169e-21)
(0.709662 0.680079 7.40901e-23)
(0.780341 0.663302 6.47474e-22)
(0.81378 0.605596 -8.72942e-21)
(0.835648 0.54231 3.93395e-20)
(0.854489 0.484339 -2.72475e-20)
(0.87215 0.432752 3.27139e-20)
(0.891454 0.385541 -2.30806e-20)
(0.908985 0.344173 -3.04193e-20)
(0.245382 0.289383 -1.58276e-21)
(0.518302 0.583795 -5.72593e-22)
(0.666882 0.671594 2.73896e-22)
(0.737725 0.651597 1.37955e-20)
(0.774694 0.593121 -5.45965e-21)
(0.800903 0.530229 8.39912e-21)
(0.823831 0.47296 1.60911e-20)
(0.845334 0.422027 -8.49761e-21)
(0.867847 0.375354 -2.16941e-20)
(0.886458 0.33427 3.02096e-20)
(0.228183 0.289309 1.1338e-20)
(0.481768 0.577086 1.5138e-20)
(0.623845 0.658988 -1.44329e-20)
(0.695338 0.636345 -1.29328e-20)
(0.73606 0.577678 4.46722e-20)
(0.766664 0.515635 -4.54467e-20)
(0.793693 0.459425 5.43052e-20)
(0.818933 0.409501 -1.37428e-20)
(0.844377 0.363909 1.47282e-20)
(0.864707 0.323985 2.71882e-20)
(0.21028 0.28684 -4.28875e-21)
(0.444795 0.566266 -1.45851e-20)
(0.580965 0.642304 -8.50959e-21)
(0.653515 0.61759 -4.86116e-21)
(0.698143 0.559301 5.16434e-21)
(0.733152 0.498548 -1.16028e-20)
(0.764246 0.443742 -1.62841e-20)
(0.793105 0.395108 -3.51195e-20)
(0.821363 0.350843 3.47936e-20)
(0.843794 0.312278 -1.1408e-20)
(0.191934 0.281952 2.66008e-20)
(0.407806 0.551374 -3.12463e-21)
(0.538641 0.621612 -1.19441e-20)
(0.612582 0.5954 1.55646e-20)
(0.661204 0.538043 -2.80872e-20)
(0.700577 0.479013 7.46873e-20)
(0.73566 0.425957 -3.98136e-20)
(0.768018 0.378929 3.61124e-20)
(0.799026 0.336298 -6.64453e-20)
(0.823757 0.299285 -1.76081e-20)
(0.173407 0.27465 -8.63573e-21)
(0.371215 0.532484 2.82389e-20)
(0.49726 0.597015 6.72351e-21)
(0.572852 0.569866 -1.43928e-20)
(0.625493 0.513979 -2.48086e-20)
(0.669147 0.45709 -1.03705e-21)
(0.708105 0.40612 1.32929e-20)
(0.743834 0.360996 -3.23917e-20)
(0.777521 0.320254 1.60781e-20)
(0.804645 0.284942 2.1514e-21)
(0.154959 0.264964 -4.59783e-20)
(0.335421 0.509706 -1.13478e-20)
(0.457193 0.568644 -3.0905e-21)
(0.53463 0.541105 3.68953e-20)
(0.591254 0.487203 -3.42308e-20)
(0.639063 0.432858 -8.99675e-21)
(0.681755 0.384301 -5.41699e-21)
(0.720714 0.341368 1.01128e-20)
(0.75699 0.302751 -1.26718e-20)
(0.78653 0.269286 -1.9828e-20)
(0.136842 0.252952 4.04545e-20)
(0.30081 0.483184 -2.29625e-20)
(0.418794 0.536655 1.17683e-21)
(0.498202 0.509255 -5.58382e-20)
(0.558721 0.457829 6.05908e-20)
(0.610517 0.406411 -1.91877e-20)
(0.656774 0.36058 1.15139e-20)
(0.698804 0.320112 9.98662e-21)
(0.737556 0.283834 2.90087e-20)
(0.769487 0.252364 -1.18241e-20)
(0.119301 0.238699 -1.64979e-20)
(0.267747 0.453091 4.75659e-20)
(0.382398 0.501234 2.68179e-20)
(0.463843 0.474475 4.38251e-20)
(0.528115 0.425988 -1.0202e-20)
(0.583697 0.377861 4.07748e-21)
(0.633321 0.335054 3.29331e-20)
(0.678243 0.297305 7.30229e-21)
(0.719336 0.263567 7.00531e-22)
(0.753594 0.234243 -1.40946e-20)
(0.102569 0.22231 -3.76537e-20)
(0.236575 0.419631 -2.79818e-21)
(0.348318 0.46259 -1.5695e-20)
(0.431807 0.436946 -7.03635e-20)
(0.499645 0.391832 -6.80014e-20)
(0.558777 0.347334 1.13768e-20)
(0.611547 0.30783 -2.79739e-20)
(0.659162 0.273039 1.77862e-20)
(0.702441 0.242026 9.68079e-21)
(0.738928 0.215001 2.0358e-20)
(0.0868661 0.203915 5.5098e-20)
(0.207615 0.383035 -4.50774e-20)
(0.316847 0.420953 -2.28745e-20)
(0.402335 0.396867 4.06581e-20)
(0.473505 0.355526 4.6177e-20)
(0.535922 0.314972 -1.52531e-20)
(0.591592 0.279031 -1.93376e-21)
(0.641682 0.247417 -5.54208e-20)
(0.686975 0.219299 -3.13647e-20)
(0.725561 0.194728 1.19481e-20)
(0.0723953 0.183666 -3.13092e-20)
(0.181161 0.343561 1.31991e-20)
(0.28825 0.376579 4.8458e-20)
(0.375643 0.354457 -2.16629e-20)
(0.449876 0.317254 1.66377e-21)
(0.515282 0.280931 6.14735e-20)
(0.573585 0.248789 2.86939e-21)
(0.625916 0.220552 5.29414e-20)
(0.673034 0.195486 2.20923e-20)
(0.713562 0.173517 -3.51218e-20)
(0.0593436 0.16173 4.32024e-20)
(0.157481 0.301488 4.74395e-21)
(0.262769 0.329738 3.11604e-21)
(0.351929 0.309948 4.41762e-20)
(0.428919 0.277212 -5.92781e-21)
(0.496995 0.245378 -3.853e-20)
(0.557645 0.21725 1.88683e-20)
(0.611965 0.192568 -3.01319e-20)
(0.660709 0.170697 -1.26312e-20)
(0.702993 0.151473 1.27582e-20)
(0.0478784 0.138294 -2.6953e-20)
(0.136812 0.257116 -5.17047e-20)
(0.240619 0.280723 1.19162e-20)
(0.331371 0.26359 -2.33559e-20)
(0.410781 0.235609 -1.41457e-20)
(0.481186 0.208492 3.41976e-20)
(0.543876 0.184566 -8.27771e-21)
(0.599923 0.163599 7.68391e-21)
(0.650079 0.145047 -9.32068e-21)
(0.693911 0.128699 1.84573e-20)
(0.0381466 0.113559 9.71361e-21)
(0.119363 0.210763 3.47727e-20)
(0.221986 0.229837 -4.82499e-20)
(0.31412 0.215643 2.28354e-20)
(0.395587 0.192667 -1.03999e-20)
(0.46796 0.170462 -2.9265e-20)
(0.532371 0.150901 2.38609e-20)
(0.589871 0.133783 5.0255e-21)
(0.641215 0.118661 -7.74485e-22)
(0.686365 0.105307 -2.14591e-20)
(0.0302729 0.0877394 3.16763e-21)
(0.105307 0.162763 1.11616e-20)
(0.207029 0.177401 4.35997e-20)
(0.300307 0.16638 -8.34621e-21)
(0.383446 0.148615 -6.57611e-21)
(0.457409 0.131485 2.44448e-21)
(0.523209 0.116425 1.03891e-21)
(0.581876 0.103269 8.89902e-21)
(0.634178 0.0916671 -1.16781e-20)
(0.680396 0.0814095 -7.4319e-21)
(0.0243594 0.0610598 -7.93354e-21)
(0.0947893 0.113462 -1.35873e-20)
(0.195875 0.123742 -3.38233e-20)
(0.290038 0.116082 1.70134e-20)
(0.374444 0.103693 1.38847e-20)
(0.449608 0.0917672 5.8832e-22)
(0.516452 0.0813138 -2.31955e-20)
(0.575996 0.0722095 -1.02781e-20)
(0.629018 0.0642008 8.17311e-21)
(0.676039 0.057121 8.72922e-21)
(0.020484 0.0337535 1.37357e-21)
(0.0879174 0.0632161 -2.83158e-21)
(0.188622 0.0692007 6.42847e-21)
(0.283392 0.0650392 -4.35553e-21)
(0.368649 0.0581453 -3.81933e-21)
(0.444613 0.0515173 -2.59243e-21)
(0.512151 0.0457493 4.76237e-21)
(0.572274 0.0407612 1.81329e-20)
(0.625772 0.0363994 2.63333e-21)
(0.673318 0.0325579 -4.66533e-21)
(0.0187005 0.00605997 1.69975e-21)
(0.0847666 0.0123898 -4.67462e-21)
(0.185338 0.0141202 -5.296e-21)
(0.280425 0.0135453 -3.67419e-21)
(0.366105 0.0122215 3.49734e-21)
(0.442464 0.01095 1.57761e-21)
(0.510337 0.00991614 -1.57234e-21)
(0.570739 0.00908485 -7.15238e-21)
(0.624466 0.00840383 2.35355e-21)
(0.672252 0.00784013 -2.20104e-21)
(0.0190376 -0.0217776 -1.68877e-21)
(0.0853769 -0.0386488 4.64512e-21)
(0.186058 -0.0411508 5.26609e-21)
(0.281165 -0.038102 -5.03971e-21)
(0.366838 -0.0338254 4.43415e-21)
(0.443179 -0.0297176 2.21916e-21)
(0.51103 -0.0259987 -3.54172e-21)
(0.571407 -0.0226575 -4.11038e-21)
(0.625116 -0.0196443 6.04724e-22)
(0.672855 -0.0169182 -1.70905e-21)
(0.0214988 -0.0495143 1.85238e-21)
(0.0897535 -0.0895296 -5.53396e-21)
(0.190788 -0.0962623 1.23489e-20)
(0.285618 -0.0896038 -1.08405e-20)
(0.37085 -0.0797418 -5.19415e-22)
(0.446763 -0.0702676 -7.21647e-21)
(0.514229 -0.0618072 1.17146e-20)
(0.574278 -0.0543026 1.59151e-20)
(0.627718 -0.0476022 2.83458e-21)
(0.675118 -0.0415996 -6.10443e-21)
(0.0260626 -0.0769063 -1.57257e-21)
(0.0978668 -0.139884 -1.16258e-20)
(0.199499 -0.150865 -2.7074e-20)
(0.29376 -0.140662 2.34276e-20)
(0.378123 -0.125274 4.81012e-21)
(0.453198 -0.110482 4.26879e-21)
(0.519923 -0.0973218 -2.09975e-20)
(0.57934 -0.0856876 -1.24008e-20)
(0.632263 -0.0753269 -2.77098e-21)
(0.679038 -0.0660812 1.88407e-20)
(0.0326825 -0.103713 -5.53584e-21)
(0.109652 -0.189346 7.01041e-21)
(0.212135 -0.204614 4.88859e-20)
(0.305544 -0.19098 -4.41074e-21)
(0.388615 -0.170172 -1.25663e-20)
(0.462451 -0.150147 8.98692e-21)
(0.528079 -0.132357 6.7308e-22)
(0.586565 -0.116651 3.1556e-21)
(0.638725 -0.102677 -6.93491e-21)
(0.684599 -0.090246 -1.82938e-20)
(0.0412874 -0.129699 -3.71909e-21)
(0.125011 -0.237557 2.02644e-20)
(0.228606 -0.257169 -4.90578e-20)
(0.320896 -0.240269 2.11927e-20)
(0.402267 -0.214188 2.11104e-22)
(0.474469 -0.189049 -2.68787e-20)
(0.538654 -0.166729 1.19028e-20)
(0.595914 -0.147035 -1.12618e-21)
(0.647069 -0.129514 4.50993e-21)
(0.691777 -0.113976 -1.29857e-21)
(0.0517821 -0.154637 -4.24881e-20)
(0.143811 -0.284169 -5.08699e-20)
(0.248793 -0.308198 1.33978e-20)
(0.339717 -0.288243 -2.42846e-20)
(0.418996 -0.257082 -6.80588e-21)
(0.489181 -0.226982 1.02569e-20)
(0.551586 -0.200261 3.78664e-21)
(0.607331 -0.176685 1.39802e-20)
(0.657245 -0.155701 -3.0065e-21)
(0.700538 -0.137154 1.62771e-20)
(0.0640483 -0.17831 4.0609e-20)
(0.165886 -0.328844 2.61271e-20)
(0.272548 -0.357379 -1.96453e-20)
(0.361886 -0.334628 3.3072e-20)
(0.4387 -0.29862 -2.74359e-21)
(0.506502 -0.263746 -3.57491e-20)
(0.5668 -0.232779 6.25546e-21)
(0.62075 -0.205452 -3.79937e-20)
(0.669196 -0.181108 1.52536e-21)
(0.710844 -0.159666 1.37236e-20)
(0.0779457 -0.200513 -2.98e-20)
(0.191039 -0.37126 5.34595e-20)
(0.299693 -0.404402 2.09826e-20)
(0.387255 -0.379159 -2.617e-20)
(0.461258 -0.338579 3.40306e-22)
(0.526327 -0.299148 6.57174e-20)
(0.584208 -0.264119 2.90447e-21)
(0.636094 -0.233192 2.90463e-20)
(0.682851 -0.205609 3.53293e-20)
(0.722645 -0.181398 -1.97769e-20)
(0.0933127 -0.221055 1.66897e-20)
(0.219041 -0.411113 -8.02429e-21)
(0.330021 -0.448975 -1.89496e-20)
(0.415656 -0.421584 1.40173e-20)
(0.486528 -0.376744 5.46774e-20)