/*--------------------------------*- C++ -*----------------------------------*\
  =========                 |
  \\      /  F ield         | OpenFOAM: The Open Source CFD Toolbox
   \\    /   O peration     | Website:  https://openfoam.org
    \\  /    A nd           | Version:  7
     \\/     M anipulation  |
\*---------------------------------------------------------------------------*/
FoamFile
{
    version     2.0;
    format      ascii;
    class       volScalarField;
    location    "15";
    object      p;
}
// * * * * * * * * * * * * * * * * * * * * * * * * * * * * * * * * * * * * * //

dimensions      [0 2 -2 0 0 0 0];

internalField   nonuniform List<scalar> 
8500
(
-0.296063
-0.30158
-0.303426
-0.303723
-0.302704
-0.300448
-0.297126
-0.292908
-0.287907
-0.2821
-0.296829
-0.30222
-0.303984
-0.304206
-0.303117
-0.300796
-0.297413
-0.293145
-0.288096
-0.282169
-0.298355
-0.303495
-0.305095
-0.305167
-0.303938
-0.301488
-0.297984
-0.293614
-0.288472
-0.282299
-0.30063
-0.305397
-0.306752
-0.306599
-0.30516
-0.302515
-0.298828
-0.294304
-0.289025
-0.282465
-0.30364
-0.307914
-0.308945
-0.308492
-0.306771
-0.303867
-0.299934
-0.295202
-0.289736
-0.282564
-0.307364
-0.31103
-0.311658
-0.310832
-0.30876
-0.305529
-0.301286
-0.296286
-0.290588
-0.28247
-0.311781
-0.314728
-0.314876
-0.313603
-0.31111
-0.307486
-0.302867
-0.297525
-0.291559
-0.282881
-0.316866
-0.318987
-0.31858
-0.31679
-0.313807
-0.309723
-0.304664
-0.298945
-0.292543
-0.28308
-0.322595
-0.323788
-0.322753
-0.320374
-0.316833
-0.312224
-0.306656
-0.300488
-0.293609
-0.283095
-0.328942
-0.329109
-0.327374
-0.324339
-0.320175
-0.314976
-0.308833
-0.302144
-0.294734
-0.282935
-0.335883
-0.334927
-0.332425
-0.32867
-0.323818
-0.31797
-0.311188
-0.303907
-0.295894
-0.282563
-0.343394
-0.34122
-0.337888
-0.333349
-0.327754
-0.3212
-0.313718
-0.305776
-0.297078
-0.281938
-0.351449
-0.347968
-0.343742
-0.338365
-0.331973
-0.324665
-0.31643
-0.307761
-0.298289
-0.281027
-0.360023
-0.355148
-0.34997
-0.343703
-0.336471
-0.328368
-0.319339
-0.309884
-0.299539
-0.27981
-0.36909
-0.362735
-0.356553
-0.349352
-0.341243
-0.332319
-0.322468
-0.312185
-0.300868
-0.278312
-0.378619
-0.370703
-0.363471
-0.355301
-0.34629
-0.33653
-0.325852
-0.314725
-0.302358
-0.276649
-0.388573
-0.379023
-0.370702
-0.361536
-0.351609
-0.341016
-0.329532
-0.317583
-0.304076
-0.274909
-0.398911
-0.387664
-0.378222
-0.368042
-0.357198
-0.345792
-0.333566
-0.320854
-0.305917
-0.272691
-0.409583
-0.396586
-0.386003
-0.3748
-0.36305
-0.350882
-0.338057
-0.324766
-0.308081
-0.270336
-0.420533
-0.405749
-0.394011
-0.381786
-0.369148
-0.356289
-0.343089
-0.329719
-0.312982
-0.278039
-0.431698
-0.415104
-0.402207
-0.388963
-0.375452
-0.36195
-0.34852
-0.335511
-0.322982
-0.320571
-0.443009
-0.424599
-0.410547
-0.39629
-0.381905
-0.367739
-0.353984
-0.341001
-0.32965
-0.334314
-0.454395
-0.434177
-0.418984
-0.403722
-0.388459
-0.373578
-0.359317
-0.345912
-0.333908
-0.338711
-0.465777
-0.443776
-0.427464
-0.411214
-0.395068
-0.379425
-0.364514
-0.350436
-0.337396
-0.340814
-0.477078
-0.453329
-0.435931
-0.418713
-0.401685
-0.385241
-0.369561
-0.354624
-0.340363
-0.341334
-0.488209
-0.462761
-0.444316
-0.42616
-0.408253
-0.390968
-0.37441
-0.358435
-0.342756
-0.340654
-0.499077
-0.471989
-0.452546
-0.433484
-0.414699
-0.396531
-0.378993
-0.361819
-0.34457
-0.339109
-0.509579
-0.480921
-0.460533
-0.4406
-0.420941
-0.401846
-0.38323
-0.364722
-0.345794
-0.336879
-0.5196
-0.489453
-0.46818
-0.447413
-0.42688
-0.406814
-0.387029
-0.367074
-0.346393
-0.334042
-0.529012
-0.497469
-0.475378
-0.453815
-0.432408
-0.411325
-0.390288
-0.368793
-0.346313
-0.330619
-0.537677
-0.504846
-0.482005
-0.459686
-0.437403
-0.415259
-0.392895
-0.369787
-0.345484
-0.326591
-0.545443
-0.511444
-0.487931
-0.464896
-0.441734
-0.418486
-0.394731
-0.369955
-0.343829
-0.321912
-0.552148
-0.517119
-0.493012
-0.469303
-0.44526
-0.420869
-0.395668
-0.369192
-0.341261
-0.316518
-0.55762
-0.521715
-0.4971
-0.472758
-0.447833
-0.422264
-0.395577
-0.367386
-0.337688
-0.310332
-0.56168
-0.525069
-0.500036
-0.475104
-0.449298
-0.422525
-0.394325
-0.364427
-0.33302
-0.303271
-0.564146
-0.527015
-0.501656
-0.476181
-0.449499
-0.421502
-0.39178
-0.360205
-0.327168
-0.295253
-0.564832
-0.527382
-0.501796
-0.475824
-0.448276
-0.419051
-0.387816
-0.354614
-0.320047
-0.286198
-0.563556
-0.526001
-0.500289
-0.47387
-0.445474
-0.415028
-0.382309
-0.347559
-0.311582
-0.276036
-0.560138
-0.522705
-0.49697
-0.47016
-0.440941
-0.409299
-0.375149
-0.338952
-0.301706
-0.264703
-0.554407
-0.517331
-0.491681
-0.464539
-0.434536
-0.401739
-0.366235
-0.328716
-0.290366
-0.252148
-0.546204
-0.509727
-0.48427
-0.456862
-0.426124
-0.392237
-0.355481
-0.316791
-0.27752
-0.238333
-0.535381
-0.499752
-0.4746
-0.446997
-0.41559
-0.380696
-0.342815
-0.30313
-0.26314
-0.223233
-0.521812
-0.487279
-0.462544
-0.434826
-0.40283
-0.367038
-0.328184
-0.287702
-0.247211
-0.206832
-0.505389
-0.4722
-0.447995
-0.420251
-0.387764
-0.351203
-0.311553
-0.270493
-0.229734
-0.189131
-0.486027
-0.454426
-0.430867
-0.403193
-0.370331
-0.333155
-0.292908
-0.251505
-0.210726
-0.170145
-0.463667
-0.433892
-0.411094
-0.383599
-0.350493
-0.312876
-0.272253
-0.230757
-0.19022
-0.149906
-0.438279
-0.410559
-0.388639
-0.361438
-0.328239
-0.290375
-0.24961
-0.208283
-0.168254
-0.128429
-0.409861
-0.384414
-0.363487
-0.336707
-0.303582
-0.265684
-0.225027
-0.184135
-0.144853
-0.105598
-0.378444
-0.355474
-0.335656
-0.309432
-0.27656
-0.238856
-0.198571
-0.158391
-0.120088
-0.0813035
-0.344087
-0.323783
-0.305191
-0.279667
-0.247242
-0.209972
-0.170329
-0.131142
-0.0941574
-0.0566383
-0.306884
-0.289419
-0.272165
-0.247491
-0.215719
-0.179132
-0.140405
-0.102464
-0.0668246
-0.0311333
-0.266959
-0.252488
-0.236683
-0.213017
-0.182111
-0.14646
-0.10892
-0.0724905
-0.0384707
-0.00463968
-0.224467
-0.213124
-0.198879
-0.176384
-0.146561
-0.112097
-0.076019
-0.0413471
-0.00919155
0.0226652
-0.179594
-0.171492
-0.158914
-0.137758
-0.10922
-0.0762191
-0.0418584
-0.00917708
0.0209079
0.0506205
-0.132544
-0.127788
-0.116975
-0.0973044
-0.0703054
-0.0390033
-0.0066125
0.0238598
0.0516908
0.0790649
-0.0835282
-0.0822514
-0.0732746
-0.0552585
-0.0300054
-0.000648335
0.0295289
0.0575923
0.0830088
0.107811
-0.0328654
-0.0350837
-0.0280492
-0.0118449
0.0114559
0.0386319
0.0663647
0.0918501
0.114729
0.136585
0.0191675
0.0134478
0.0184463
0.0326904
0.0538402
0.0786118
0.103684
0.126469
0.146713
0.164946
0.0722921
0.0630462
0.0659392
0.0780857
0.0968991
0.119058
0.141271
0.161255
0.178604
0.192259
0.12619
0.113414
0.114143
0.124068
0.140378
0.159739
0.178923
0.195943
0.209542
0.21712
0.180529
0.164241
0.162759
0.170355
0.184021
0.200438
0.216482
0.230337
0.238801
0.238914
0.234967
0.215207
0.21148
0.216659
0.227565
0.240936
0.253779
0.26449
0.269752
0.268438
0.289156
0.265982
0.259991
0.262684
0.270742
0.280988
0.290575
0.29806
0.300447
0.297856
0.342745
0.316233
0.307974
0.308134
0.313279
0.320346
0.326636
0.330835
0.330276
0.32592
0.395381
0.365628
0.355112
0.352713
0.35491
0.358769
0.361748
0.362654
0.35915
0.352724
0.446717
0.413834
0.401091
0.396132
0.395372
0.396026
0.395709
0.39335
0.386941
0.378273
0.496409
0.460525
0.445601
0.438106
0.434412
0.431894
0.428326
0.42276
0.413504
0.402507
0.544124
0.505383
0.488342
0.478359
0.471786
0.466161
0.45942
0.450735
0.438714
0.425363
0.58954
0.548102
0.529025
0.516629
0.507258
0.498626
0.488821
0.477134
0.462458
0.446775
0.63235
0.588388
0.567374
0.552662
0.540609
0.529098
0.516369
0.501829
0.484633
0.466683
0.672263
0.625964
0.603128
0.586224
0.571631
0.557399
0.541917
0.524698
0.505139
0.485024
0.709008
0.660569
0.636042
0.617093
0.600129
0.583364
0.565324
0.545627
0.523885
0.501737
0.742334
0.691964
0.665893
0.645066
0.625927
0.606843
0.586466
0.564511
0.540785
0.516764
0.772013
0.719931
0.692475
0.66996
0.648865
0.627698
0.605227
0.581254
0.555758
0.530049
0.797841
0.744275
0.715609
0.691611
0.668798
0.645806
0.621505
0.595771
0.568734
0.541541
0.819642
0.764827
0.735134
0.709875
0.685603
0.661063
0.63521
0.607988
0.579648
0.551192
0.837266
0.781444
0.750918
0.724633
0.699175
0.673377
0.646266
0.617839
0.588446
0.558963
0.850591
0.794009
0.762851
0.735788
0.709429
0.682677
0.654613
0.625274
0.595084
0.564821
0.859526
0.802435
0.770852
0.743266
0.716301
0.688908
0.660204
0.630252
0.599529
0.568741
0.864009
0.806663
0.774867
0.747017
0.719748
0.692033
0.663007
0.632748
0.601757
0.570705
0.864009
0.806663
0.774867
0.747017
0.719748
0.692033
0.663007
0.632748
0.601757
0.570705
0.859526
0.802435
0.770852
0.743266
0.716301
0.688908
0.660204
0.630252
0.599529
0.568741
0.850591
0.794009
0.762851
0.735788
0.709429
0.682677
0.654613
0.625274
0.595084
0.564821
0.837266
0.781444
0.750918
0.724633
0.699175
0.673377
0.646266
0.617839
0.588446
0.558963
0.819642
0.764827
0.735134
0.709875
0.685603
0.661063
0.63521
0.607988
0.579648
0.551192
0.797841
0.744275
0.715609
0.691611
0.668798
0.645806
0.621505
0.595771
0.568734
0.541541
0.772013
0.719931
0.692475
0.66996
0.648865
0.627698
0.605227
0.581254
0.555758
0.530049
0.742334
0.691964
0.665893
0.645066
0.625927
0.606843
0.586466
0.564511
0.540785
0.516764
0.709008
0.660569
0.636042
0.617093
0.600129
0.583364
0.565324
0.545627
0.523885
0.501737
0.672263
0.625964
0.603128
0.586224
0.571631
0.557399
0.541917
0.524698
0.505139
0.485024
0.63235
0.588388
0.567374
0.552662
0.540609
0.529097
0.516369
0.501829
0.484633
0.466683
0.58954
0.548102
0.529025
0.516629
0.507258
0.498626
0.488821
0.477134
0.462458
0.446775
0.544124
0.505383
0.488342
0.478359
0.471786
0.466161
0.45942
0.450735
0.438714
0.425363
0.496409
0.460525
0.445601
0.438106
0.434412
0.431894
0.428326
0.42276
0.413504
0.402507
0.446717
0.413834
0.401091
0.396132
0.395372
0.396026
0.395709
0.39335
0.386941
0.378273
0.395381
0.365628
0.355112
0.352713
0.35491
0.358769
0.361748
0.362654
0.35915
0.352724
0.342745
0.316233
0.307974
0.308134
0.313279
0.320346
0.326636
0.330835
0.330276
0.32592
0.289156
0.265982
0.259991
0.262684
0.270742
0.280988
0.290575
0.29806
0.300447
0.297856
0.234967
0.215207
0.21148
0.216659
0.227565
0.240936
0.253779
0.26449
0.269752
0.268438
0.180529
0.164241
0.162759
0.170355
0.184021
0.200438
0.216482
0.230337
0.238801
0.238914
0.12619
0.113414
0.114143
0.124068
0.140378
0.159739
0.178923
0.195943
0.209542
0.21712
0.0722921
0.0630462
0.0659391
0.0780856
0.0968991
0.119058
0.141271
0.161255
0.178604
0.192259
0.0191675
0.0134478
0.0184463
0.0326904
0.0538401
0.0786118
0.103684
0.126469
0.146713
0.164946
-0.0328654
-0.0350837
-0.0280492
-0.0118449
0.0114559
0.0386319
0.0663647
0.0918501
0.114729
0.136585
-0.0835282
-0.0822514
-0.0732746
-0.0552586
-0.0300054
-0.000648355
0.0295289
0.0575923
0.0830088
0.107811
-0.132544
-0.127788
-0.116975
-0.0973045
-0.0703055
-0.0390034
-0.00661252
0.0238598
0.0516908
0.0790648
-0.179594
-0.171493
-0.158914
-0.137758
-0.10922
-0.0762192
-0.0418584
-0.0091771
0.0209079
0.0506205
-0.224467
-0.213124
-0.198879
-0.176384
-0.146561
-0.112097
-0.0760191
-0.0413471
-0.00919157
0.0226651
-0.266959
-0.252488
-0.236683
-0.213017
-0.182111
-0.14646
-0.10892
-0.0724905
-0.0384707
-0.0046397
-0.306884
-0.28942
-0.272165
-0.247491
-0.215719
-0.179132
-0.140405
-0.102464
-0.0668247
-0.0311333
-0.344087
-0.323784
-0.305191
-0.279667
-0.247242
-0.209972
-0.170329
-0.131142
-0.0941574
-0.0566383
-0.378444
-0.355474
-0.335656
-0.309432
-0.27656
-0.238856
-0.198571
-0.158391
-0.120088
-0.0813036
-0.409861
-0.384414
-0.363487
-0.336707
-0.303582
-0.265684
-0.225027
-0.184135
-0.144853
-0.105598
-0.438279
-0.410559
-0.388639
-0.361438
-0.328239
-0.290375
-0.24961
-0.208283
-0.168254
-0.128429
-0.463667
-0.433892
-0.411094
-0.383599
-0.350493
-0.312876
-0.272253
-0.230757
-0.19022
-0.149906
-0.486027
-0.454426
-0.430867
-0.403193
-0.370331
-0.333155
-0.292908
-0.251505
-0.210726
-0.170145
-0.505389
-0.4722
-0.447995
-0.420251
-0.387764
-0.351203
-0.311553
-0.270493
-0.229734
-0.189131
-0.521812
-0.487279
-0.462544
-0.434826
-0.40283
-0.367038
-0.328184
-0.287702
-0.247211
-0.206832
-0.535381
-0.499752
-0.4746
-0.446997
-0.41559
-0.380696
-0.342815
-0.30313
-0.26314
-0.223233
-0.546204
-0.509727
-0.48427
-0.456862
-0.426124
-0.392237
-0.355481
-0.316791
-0.27752
-0.238333
-0.554407
-0.517331
-0.491681
-0.464539
-0.434536
-0.401739
-0.366235
-0.328716
-0.290366
-0.252148
-0.560138
-0.522705
-0.49697
-0.47016
-0.440941
-0.409299
-0.375149
-0.338952
-0.301706
-0.264703
-0.563556
-0.526001
-0.500289
-0.473871
-0.445474
-0.415028
-0.382309
-0.347559
-0.311582
-0.276036
-0.564832
-0.527382
-0.501796
-0.475824
-0.448276
-0.419051
-0.387816
-0.354614
-0.320047
-0.286198
-0.564146
-0.527015
-0.501656
-0.476181
-0.449499
-0.421502
-0.39178
-0.360205
-0.327168
-0.295253
-0.56168
-0.525069
-0.500036
-0.475104
-0.449298
-0.422525
-0.394325
-0.364427
-0.33302
-0.303271
-0.55762
-0.521715
-0.4971
-0.472758
-0.447833
-0.422264
-0.395577
-0.367386
-0.337688
-0.310332
-0.552148
-0.517119
-0.493012
-0.469303
-0.44526
-0.420869
-0.395668
-0.369192
-0.341261
-0.316518
-0.545443
-0.511444
-0.487931
-0.464896
-0.441734
-0.418486
-0.394731
-0.369955
-0.343829
-0.321912
-0.537677
-0.504846
-0.482005
-0.459686
-0.437403
-0.415259
-0.392895
-0.369787
-0.345484
-0.326591
-0.529012
-0.497469
-0.475378
-0.453815
-0.432408
-0.411325
-0.390288
-0.368793
-0.346313
-0.330619
-0.5196
-0.489453
-0.46818
-0.447413
-0.42688
-0.406814
-0.387029
-0.367074
-0.346393
-0.334042
-0.509579
-0.480921
-0.460533
-0.4406
-0.420941
-0.401846
-0.38323
-0.364722
-0.345794
-0.336879
-0.499077
-0.471989
-0.452546
-0.433484
-0.414699
-0.396531
-0.378993
-0.361819
-0.34457
-0.339109
-0.488209
-0.462761
-0.444316
-0.42616
-0.408253
-0.390968
-0.37441
-0.358435
-0.342756
-0.340654
-0.477078
-0.453329
-0.435931
-0.418713
-0.401685
-0.385241
-0.369561
-0.354624
-0.340363
-0.341334
-0.465777
-0.443776
-0.427464
-0.411214
-0.395068
-0.379425
-0.364514
-0.350436
-0.337396
-0.340814
-0.454395
-0.434177
-0.418984
-0.403722
-0.388459
-0.373578
-0.359317
-0.345912
-0.333908
-0.338711
-0.443009
-0.424599
-0.410547
-0.39629
-0.381905
-0.367739
-0.353984
-0.341001
-0.32965
-0.334314
-0.431698
-0.415104
-0.402207
-0.388963
-0.375452
-0.36195
-0.34852
-0.335511
-0.322982
-0.320571
-0.420533
-0.405749
-0.394011
-0.381786
-0.369148
-0.356289
-0.343089
-0.329719
-0.312982
-0.278039
-0.409583
-0.396586
-0.386003
-0.3748
-0.36305
-0.350882
-0.338057
-0.324766
-0.308081
-0.270336
-0.398911
-0.387664
-0.378222
-0.368042
-0.357198
-0.345792
-0.333566
-0.320854
-0.305917
-0.272691
-0.388573
-0.379023
-0.370702
-0.361536
-0.351609
-0.341016
-0.329532
-0.317583
-0.304076
-0.274909
-0.378619
-0.370703
-0.363471
-0.355301
-0.34629
-0.33653
-0.325852
-0.314725
-0.302358
-0.276649
-0.36909
-0.362735
-0.356553
-0.349352
-0.341243
-0.332319
-0.322468
-0.312185
-0.300868
-0.278312
-0.360023
-0.355148
-0.34997
-0.343703
-0.336471
-0.328368
-0.319339
-0.309884
-0.299539
-0.27981
-0.351449
-0.347968
-0.343742
-0.338365
-0.331973
-0.324665
-0.31643
-0.307761
-0.298289
-0.281027
-0.343394
-0.34122
-0.337888
-0.333349
-0.327754
-0.3212
-0.313718
-0.305776
-0.297078
-0.281938
-0.335883
-0.334927
-0.332425
-0.32867
-0.323818
-0.31797
-0.311188
-0.303907
-0.295894
-0.282563
-0.328942
-0.329109
-0.327374
-0.324339
-0.320175
-0.314976
-0.308833
-0.302144
-0.294734
-0.282935
-0.322595
-0.323788
-0.322753
-0.320374
-0.316833
-0.312224
-0.306656
-0.300488
-0.293609
-0.283095
-0.316866
-0.318987
-0.31858
-0.31679
-0.313807
-0.309723
-0.304664
-0.298945
-0.292543
-0.28308
-0.311781
-0.314728
-0.314876
-0.313603
-0.31111
-0.307486
-0.302867
-0.297525
-0.291559
-0.282881
-0.307364
-0.31103
-0.311658
-0.310832
-0.30876
-0.305529
-0.301286
-0.296286
-0.290588
-0.28247
-0.30364
-0.307914
-0.308945
-0.308492
-0.306771
-0.303867
-0.299934
-0.295202
-0.289736
-0.282564
-0.30063
-0.305397
-0.306752
-0.306599
-0.30516
-0.302515
-0.298828
-0.294304
-0.289025
-0.282465
-0.298355
-0.303495
-0.305095
-0.305167
-0.303938
-0.301488
-0.297984
-0.293614
-0.288472
-0.282299
-0.296829
-0.30222
-0.303984
-0.304206
-0.303117
-0.300796
-0.297413
-0.293145
-0.288096
-0.282169
-0.296063
-0.30158
-0.303426
-0.303723
-0.302704
-0.300448
-0.297126
-0.292908
-0.287907
-0.2821
-0.276666
-0.268355
-0.259589
-0.249565
-0.23859
-0.226786
-0.214297
-0.201301
-0.187969
-0.17447
-0.16096
-0.147583
-0.134463
-0.121708
-0.109411
-0.0976383
-0.0864634
-0.0758935
-0.0660295
-0.0567414
-0.0483145
-0.0402109
-0.0333933
-0.0260758
-0.0213478
-0.0137549
-0.0125486
-0.00200559
-0.0082651
0.0118794
-0.277141
-0.268631
-0.259847
-0.249793
-0.238792
-0.226969
-0.214464
-0.201454
-0.18811
-0.174599
-0.16108
-0.147693
-0.134564
-0.1218
-0.109494
-0.097713
-0.08653
-0.0759525
-0.0660814
-0.0567867
-0.0483536
-0.0402449
-0.0334217
-0.0261012
-0.0213667
-0.013775
-0.0125579
-0.00202571
-0.008261
0.011847
-0.278081
-0.269176
-0.260358
-0.250244
-0.239192
-0.227331
-0.214793
-0.201757
-0.188389
-0.174858
-0.161318
-0.147912
-0.134765
-0.121983
-0.10966
-0.0978618
-0.0866629
-0.0760702
-0.0661849
-0.0568772
-0.0484318
-0.0403129
-0.0334784
-0.0261519
-0.0214046
-0.0138152
-0.0125765
-0.00206588
-0.00825287
0.0117824
-0.279477
-0.269976
-0.261113
-0.250909
-0.23978
-0.227864
-0.215279
-0.202204
-0.188803
-0.17524
-0.161672
-0.148239
-0.135064
-0.122256
-0.109907
-0.0980841
-0.0868614
-0.0762461
-0.0663396
-0.0570126
-0.0485487
-0.0404145
-0.0335632
-0.0262278
-0.0214613
-0.0138753
-0.0126043
-0.0021259
-0.00824078
0.011686
-0.281416
-0.270989
-0.262092
-0.251773
-0.240545
-0.228557
-0.215913
-0.202789
-0.189344
-0.175743
-0.162138
-0.148669
-0.13546
-0.122617
-0.110234
-0.0983787
-0.0871245
-0.0764795
-0.0665449
-0.0571923
-0.0487039
-0.0405495
-0.0336759
-0.0263286
-0.0215367
-0.0139551
-0.0126413
-0.00220551
-0.0082249
0.0115583
-0.284079
-0.272113
-0.263265
-0.252818
-0.24147
-0.229396
-0.216682
-0.2035
-0.190006
-0.176359
-0.162711
-0.149199
-0.135948
-0.123063
-0.11064
-0.0987439
-0.0874511
-0.0767694
-0.0668001
-0.0574157
-0.0488969
-0.0407175
-0.0338162
-0.026454
-0.0216305
-0.0140543
-0.0126875
-0.00230436
-0.0082054
0.0114001
-0.286293
-0.273797
-0.264627
-0.254023
-0.242535
-0.230364
-0.217572
-0.204327
-0.190778
-0.177081
-0.163385
-0.149825
-0.136525
-0.123592
-0.111121
-0.0991779
-0.0878396
-0.0771145
-0.0671041
-0.0576819
-0.0491271
-0.0409178
-0.0339834
-0.0266036
-0.0217425
-0.0141727
-0.0127428
-0.002422
-0.00818249
0.0112122
-0.289092
-0.275571
-0.266131
-0.255363
-0.243718
-0.231441
-0.218567
-0.205256
-0.19165
-0.177901
-0.164152
-0.15054
-0.137187
-0.1242
-0.111675
-0.0996784
-0.0882882
-0.0775134
-0.0674557
-0.0579901
-0.0493936
-0.0411499
-0.0341773
-0.026777
-0.0218724
-0.0143097
-0.0128072
-0.00255795
-0.00815645
0.0109958
-0.292295
-0.277474
-0.267761
-0.256812
-0.244997
-0.232608
-0.21965
-0.206273
-0.192611
-0.178808
-0.165006
-0.151338
-0.137929
-0.124883
-0.112298
-0.100243
-0.0887949
-0.0779644
-0.0678535
-0.0583391
-0.0496955
-0.0414128
-0.034397
-0.0269735
-0.0220197
-0.0144649
-0.0128806
-0.00271161
-0.00812754
0.0107521
-0.295772
-0.279517
-0.269488
-0.25834
-0.246345
-0.233844
-0.220804
-0.207364
-0.193648
-0.179793
-0.165938
-0.152214
-0.138745
-0.125637
-0.112988
-0.100869
-0.0893573
-0.0784656
-0.0682961
-0.0587276
-0.0500318
-0.0417059
-0.0346419
-0.0271926
-0.0221842
-0.0146379
-0.0129628
-0.00288234
-0.00809608
0.0104824
-0.299452
-0.281678
-0.271277
-0.259916
-0.247739
-0.235126
-0.22201
-0.208515
-0.19475
-0.180847
-0.16694
-0.15316
-0.13963
-0.126457
-0.113741
-0.101553
-0.089973
-0.079015
-0.0687817
-0.0591542
-0.0504013
-0.042028
-0.0349113
-0.0274335
-0.0223653
-0.0148279
-0.0130538
-0.00306945
-0.00806238
0.0101882
-0.30328
-0.283935
-0.273094
-0.261509
-0.249152
-0.236435
-0.223252
-0.209709
-0.195904
-0.181959
-0.168004
-0.15417
-0.140578
-0.127339
-0.114552
-0.102291
-0.0906392
-0.0796104
-0.0693085
-0.0596173
-0.0508026
-0.0423782
-0.0352041
-0.0276956
-0.0225624
-0.0150344
-0.0131535
-0.00327218
-0.00802678
0.00987095
-0.30716
-0.286262
-0.274907
-0.263086
-0.250563
-0.237751
-0.224513
-0.210935
-0.197098
-0.183119
-0.169122
-0.155236
-0.141584
-0.128277
-0.115417
-0.103082
-0.0913533
-0.0802494
-0.0698745
-0.0601155
-0.0512346
-0.0427552
-0.0355196
-0.0279779
-0.0227752
-0.0152568
-0.0132616
-0.00348975
-0.00798963
0.0095324
-0.310959
-0.288631
-0.276686
-0.264616
-0.251947
-0.239056
-0.225778
-0.212179
-0.198323
-0.184318
-0.170285
-0.156352
-0.142641
-0.129267
-0.116334
-0.103921
-0.0921126
-0.08093
-0.070478
-0.0606471
-0.0516957
-0.043158
-0.0358569
-0.0282796
-0.0230029
-0.0154943
-0.0133781
-0.00372134
-0.00795127
0.00917421
-0.314493
-0.290997
-0.278399
-0.266064
-0.253281
-0.240333
-0.227034
-0.213429
-0.199566
-0.185546
-0.171485
-0.157509
-0.143744
-0.130304
-0.117296
-0.104803
-0.0929131
-0.0816486
-0.0711159
-0.0612096
-0.052184
-0.0435848
-0.0362143
-0.0285996
-0.0232446
-0.0157459
-0.0135026
-0.00396605
-0.00791191
0.0087981
-0.317456
-0.293257
-0.280007
-0.267394
-0.25454
-0.241564
-0.228263
-0.214668
-0.200813
-0.186788
-0.172708
-0.158696
-0.144879
-0.131375
-0.118294
-0.105721
-0.0937476
-0.082399
-0.071783
-0.0617986
-0.0526957
-0.0440326
-0.0365894
-0.0289357
-0.023499
-0.0160106
-0.0136344
-0.00422287
-0.00787175
0.00840582
-0.319388
-0.29532
-0.281519
-0.268601
-0.255719
-0.242747
-0.229464
-0.215896
-0.202061
-0.188043
-0.173951
-0.15991
-0.146047
-0.132482
-0.119328
-0.106675
-0.0946161
-0.0831814
-0.0724795
-0.0624143
-0.0532312
-0.0445016
-0.0369828
-0.0292883
-0.0237666
-0.0162879
-0.0137744
-0.0044909
-0.00783197
0.00799919
-0.320023
-0.297281
-0.283032
-0.269741
-0.256861
-0.243926
-0.230685
-0.21716
-0.203361
-0.189362
-0.175269
-0.161205
-0.147298
-0.133672
-0.120444
-0.107705
-0.0955562
-0.0840289
-0.0732341
-0.063081
-0.0538107
-0.045008
-0.0374079
-0.0296668
-0.0240557
-0.0165823
-0.0139279
-0.00477039
-0.00779584
0.00757994
-0.31862
-0.298514
-0.284313
-0.270688
-0.257872
-0.245037
-0.23188
-0.218431
-0.204698
-0.190742
-0.176666
-0.162593
-0.148652
-0.134968
-0.121664
-0.108837
-0.0965907
-0.0849622
-0.0740648
-0.0638138
-0.0544465
-0.0455614
-0.0378712
-0.0300762
-0.0243686
-0.0168958
-0.0140939
-0.00506248
-0.00776075
0.00714893
-0.308127
-0.295933
-0.284373
-0.270785
-0.258199
-0.245566
-0.232541
-0.219199
-0.205554
-0.191665
-0.177635
-0.163582
-0.149639
-0.135933
-0.122589
-0.109708
-0.0973967
-0.085699
-0.074727
-0.0644063
-0.0549627
-0.0460207
-0.038252
-0.0304297
-0.024625
-0.0171863
-0.0142196
-0.00535985
-0.00769391
0.00670578
-0.273334
-0.288426
-0.283929
-0.270802
-0.258471
-0.245998
-0.233008
-0.219645
-0.205962
-0.192031
-0.17796
-0.163872
-0.1499
-0.136172
-0.122811
-0.109918
-0.097597
-0.0858949
-0.0749136
-0.0645963
-0.0551368
-0.0462135
-0.0384066
-0.0306392
-0.0247403
-0.0174397
-0.0142529
-0.00571137
-0.00754416
0.00614882
-0.261956
-0.279464
-0.278321
-0.266069
-0.254485
-0.242718
-0.230262
-0.217344
-0.20406
-0.19049
-0.176744
-0.162947
-0.149229
-0.135721
-0.122544
-0.109805
-0.097606
-0.0860018
-0.07509
-0.0648305
-0.055396
-0.0465102
-0.0386832
-0.030963
-0.0249775
-0.0177894
-0.0143813
-0.00613771
-0.00743044
0.00547578
-0.256652
-0.27105
-0.271111
-0.259812
-0.248973
-0.237975
-0.226172
-0.21382
-0.20106
-0.187972
-0.174669
-0.161274
-0.147918
-0.134728
-0.121827
-0.109323
-0.0973182
-0.0858749
-0.0750876
-0.0649309
-0.0555609
-0.0467412
-0.0389222
-0.0312623
-0.025212
-0.0181342
-0.0145263
-0.00656534
-0.00733771
0.00478096
-0.252469
-0.262619
-0.263346
-0.253166
-0.243016
-0.232754
-0.221634
-0.20989
-0.197689
-0.185121
-0.172297
-0.15934
-0.146378
-0.133539
-0.120944
-0.108704
-0.0969204
-0.0856617
-0.0750199
-0.0649841
-0.0556944
-0.0469533
-0.0391529
-0.031561
-0.0254519
-0.0184896
-0.0146811
-0.007011
-0.0072466
0.00405401
-0.247584
-0.253928
-0.254825
-0.245838
-0.236412
-0.226897
-0.21652
-0.205448
-0.193871
-0.181883
-0.169594
-0.157125
-0.144605
-0.132158
-0.119908
-0.107965
-0.0964319
-0.0853829
-0.0749081
-0.0650104
-0.0558155
-0.0471632
-0.0393906
-0.0318714
-0.0257083
-0.0188624
-0.0148525
-0.00747739
-0.00716016
0.00329796
-0.241509
-0.24476
-0.245369
-0.23758
-0.22897
-0.220242
-0.210673
-0.200355
-0.189478
-0.178144
-0.166459
-0.154544
-0.142524
-0.130524
-0.118667
-0.107064
-0.0958197
-0.0850127
-0.0747327
-0.0649953
-0.0559141
-0.0473639
-0.0396314
-0.0321903
-0.0259808
-0.0192507
-0.015043
-0.0079607
-0.00708372
0.00252215
-0.233777
-0.234841
-0.234929
-0.228315
-0.220638
-0.212751
-0.204052
-0.194563
-0.184463
-0.173857
-0.162847
-0.151552
-0.140095
-0.1286
-0.117189
-0.105972
-0.0950585
-0.0845297
-0.0744756
-0.0649241
-0.0559787
-0.0475463
-0.0398685
-0.0325122
-0.0262664
-0.0196508
-0.0152519
-0.00845665
-0.0070209
0.00173755
-0.224145
-0.223965
-0.223516
-0.218048
-0.211407
-0.204425
-0.196649
-0.188059
-0.178806
-0.168998
-0.158733
-0.148124
-0.137293
-0.126361
-0.115448
-0.104668
-0.0941286
-0.0839166
-0.0741223
-0.0647845
-0.0559992
-0.0477021
-0.0400957
-0.032832
-0.0265615
-0.020059
-0.0154782
-0.00896089
-0.00697471
0.000956417
-0.212626
-0.21204
-0.211198
-0.206832
-0.201311
-0.195293
-0.188486
-0.180849
-0.172506
-0.163559
-0.154101
-0.144241
-0.134096
-0.123784
-0.113425
-0.103131
-0.0930113
-0.0831565
-0.0736576
-0.0645637
-0.0559645
-0.0478223
-0.0403056
-0.0331437
-0.0268619
-0.0204712
-0.0157202
-0.00946839
-0.00694795
0.000192435
-0.199446
-0.199094
-0.1981
-0.194789
-0.190428
-0.185426
-0.179617
-0.172973
-0.165587
-0.157551
-0.148954
-0.139897
-0.130493
-0.120856
-0.111102
-0.101343
-0.0916889
-0.0822326
-0.0730663
-0.0642479
-0.0558628
-0.0478969
-0.0404898
-0.0334405
-0.027162
-0.0208822
-0.0159753
-0.00997335
-0.00694293
-0.000539776
-0.184981
-0.185282
-0.184402
-0.1821
-0.178894
-0.174932
-0.170134
-0.164501
-0.1581
-0.15101
-0.143313
-0.135104
-0.126487
-0.117571
-0.10847
-0.0992931
-0.0901479
-0.0811308
-0.0723342
-0.0638238
-0.0556819
-0.0479151
-0.040639
-0.0337142
-0.0274554
-0.021286
-0.0162399
-0.0104693
-0.00696121
-0.00122545
-0.169701
-0.170855
-0.17033
-0.168981
-0.166883
-0.163953
-0.160162
-0.155534
-0.150125
-0.143998
-0.137224
-0.129892
-0.122096
-0.11394
-0.105531
-0.0969759
-0.0883801
-0.0798404
-0.0714495
-0.0632794
-0.05541
-0.047866
-0.0407432
-0.0339564
-0.0277346
-0.0216762
-0.0165096
-0.0109493
-0.00700329
-0.00185065
-0.154091
-0.156127
-0.156128
-0.155668
-0.154595
-0.152659
-0.149843
-0.146196
-0.141764
-0.136595
-0.13075
-0.124307
-0.117353
-0.109983
-0.102296
-0.0943962
-0.086384
-0.0783559
-0.070404
-0.062605
-0.0550368
-0.0477394
-0.0407926
-0.0341581
-0.0279917
-0.0220454
-0.016779
-0.0114063
-0.00706847
-0.00240338
-0.138594
-0.141423
-0.14204
-0.14239
-0.142235
-0.141224
-0.139332
-0.136622
-0.133132
-0.128897
-0.123969
-0.118413
-0.112306
-0.105734
-0.0987896
-0.0915679
-0.0841661
-0.0766782
-0.0691943
-0.0617942
-0.054554
-0.0475264
-0.040778
-0.0343108
-0.0282186
-0.0223865
-0.0170426
-0.0118331
-0.00715468
-0.00287468
-0.123568
-0.127038
-0.128286
-0.129354
-0.129998
-0.129822
-0.128786
-0.126951
-0.124351
-0.121011
-0.11697
-0.112282
-0.107013
-0.10124
-0.0950439
-0.088514
-0.0817408
-0.0748144
-0.067822
-0.0608447
-0.0539566
-0.0472202
-0.0406917
-0.0344065
-0.0284075
-0.0226921
-0.0172941
-0.0122233
-0.00725855
-0.00325947
-0.109269
-0.113213
-0.115046
-0.116731
-0.118053
-0.118611
-0.118346
-0.117314
-0.115542
-0.113043
-0.109846
-0.105995
-0.101541
-0.0965525
-0.0911009
-0.0852655
-0.0791296
-0.0727783
-0.0662946
-0.059759
-0.0532431
-0.0468169
-0.0405277
-0.0344388
-0.0285514
-0.0229557
-0.0175277
-0.0125712
-0.00737558
-0.00355698
-0.0958601
-0.100118
-0.102457
-0.104656
-0.106538
-0.107725
-0.108143
-0.107833
-0.106815
-0.105096
-0.10269
-0.0996293
-0.0959592
-0.0917312
-0.0870081
-0.0818597
-0.0763608
-0.07059
-0.0646249
-0.0585442
-0.0524159
-0.0463155
-0.0402827
-0.0344029
-0.0286446
-0.0231717
-0.0177378
-0.0128725
-0.0075005
-0.0037709
-0.0834252
-0.0878643
-0.0906151
-0.0932285
-0.0955636
-0.0972767
-0.0982848
-0.0986131
-0.0982733
-0.0972628
-0.0955875
-0.0932681
-0.0903372
-0.0868363
-0.0828169
-0.0783388
-0.0734677
-0.0682746
-0.0628309
-0.057212
-0.0514819
-0.0457188
-0.0399563
-0.0342962
-0.0286831
-0.0233358
-0.0179192
-0.0131246
-0.00762756
-0.00390897
-0.0719957
-0.0765118
-0.0795816
-0.0825176
-0.0852091
-0.0873532
-0.0888616
-0.0897445
-0.0900044
-0.0896311
-0.0886214
-0.0869852
-0.0847441
-0.0819293
-0.0785808
-0.0747481
-0.0704876
-0.0658619
-0.0609354
-0.0557789
-0.0504517
-0.0450329
-0.0395511
-0.034119
-0.028665
-0.0234456
-0.018068
-0.0133265
-0.00775103
-0.00398215
-0.0615689
-0.0660858
-0.0693905
-0.0725688
-0.0755335
-0.0780227
-0.0799472
-0.0813039
-0.0820864
-0.0822776
-0.0818662
-0.0808523
-0.0792471
-0.0770714
-0.0743543
-0.0711354
-0.067461
-0.0633853
-0.058965
-0.0542652
-0.0493403
-0.0442679
-0.0390729
-0.0338741
-0.0285903
-0.0235007
-0.0181815
-0.0134794
-0.00786562
-0.00400338
-0.0521246
-0.0565892
-0.0600583
-0.0634112
-0.0665786
-0.0693376
-0.0716015
-0.0733563
-0.0745875
-0.075272
-0.0753913
-0.0749368
-0.0739102
-0.0723221
-0.0701926
-0.0675499
-0.0644311
-0.0608816
-0.0569501
-0.0526952
-0.0481661
-0.0434374
-0.0385309
-0.0335673
-0.0284619
-0.0235027
-0.0182582
-0.0135859
-0.00796698
-0.00398614
-0.0436356
-0.0480132
-0.0515902
-0.0550625
-0.0583742
-0.0613387
-0.0638741
-0.0659577
-0.0675683
-0.0686777
-0.0692614
-0.0693033
-0.0687964
-0.0677424
-0.0661515
-0.0640427
-0.0614436
-0.0583907
-0.0549245
-0.051097
-0.0469515
-0.0425587
-0.0379376
-0.0332075
-0.0282848
-0.0234558
-0.0182984
-0.0136505
-0.008052
-0.00394323
-0.0360745
-0.0403444
-0.0439857
-0.0475338
-0.050943
-0.0540594
-0.0568072
-0.0591577
-0.0610839
-0.0625539
-0.0635381
-0.0640141
-0.0639675
-0.0633916
-0.062288
-0.0606669
-0.0585467
-0.0559554
-0.0529256
-0.049502
-0.0457224
-0.0416523
-0.0373087
-0.0328066
-0.0280667
-0.0233661
-0.0183044
-0.0136785
-0.00811907
-0.00388562
-0.0294173
-0.0335698
-0.0372431
-0.0408342
-0.0443043
-0.0475287
-0.0504389
-0.0530018
-0.0551862
-0.0569572
-0.0582813
-0.059131
-0.0594854
-0.0593307
-0.0586607
-0.0574777
-0.0557916
-0.053622
-0.0509943
-0.0479457
-0.0445086
-0.0407426
-0.0366632
-0.0323794
-0.0278182
-0.0232421
-0.0182803
-0.0136765