/*--------------------------------*- C++ -*----------------------------------*\
  =========                 |
  \\      /  F ield         | OpenFOAM: The Open Source CFD Toolbox
   \\    /   O peration     | Website:  https://openfoam.org
    \\  /    A nd           | Version:  7
     \\/     M anipulation  |
\*---------------------------------------------------------------------------*/
FoamFile
{
    version     2.0;
    format      ascii;
    class       surfaceScalarField;
    location    "15";
    object      phi;
}
// * * * * * * * * * * * * * * * * * * * * * * * * * * * * * * * * * * * * * //

dimensions      [0 3 -1 0 0 0 0];

internalField   nonuniform List<scalar> 
16735
(
-4.23619e-05
4.2362e-05
-1.39226e-10
-0.000145136
0.000102774
-3.80189e-10
-0.000292459
0.000147324
-6.10551e-10
-0.000468892
0.000176434
-8.33025e-10
-0.000659868
0.000190976
-1.03157e-09
-0.000852459
0.000192593
-1.18874e-09
-0.00103639
0.000183934
-1.29093e-09
-0.00120548
0.000169093
-1.33247e-09
-0.00135857
0.000153084
-1.30554e-09
0.000142318
-1.20109e-09
-0.00150088
-4.15927e-05
8.39547e-05
-0.000142137
0.000203319
-0.000285644
0.000290831
-0.000456475
0.000347265
-0.000639788
0.000374289
-0.00082229
0.000375095
-0.000993248
0.000354892
-0.00114597
0.000321816
-0.00127884
0.000285956
0.000260108
-0.00139663
-4.0066e-05
0.000124021
-0.00013618
0.000299433
-0.000272093
0.000426744
-0.000431777
0.000506949
-0.000599844
0.000542356
-0.000762271
0.000537522
-0.000907409
0.00050003
-0.00102754
0.00044195
-0.00112014
0.000378554
0.000329005
-0.00118904
-3.78044e-05
0.000161825
-0.000127337
0.000388965
-0.00025196
0.000551367
-0.000395066
0.000650055
-0.000540456
0.000687747
-0.000673024
0.00067009
-0.000779754
0.00060676
-0.000851385
0.000513581
-0.000883979
0.000411149
0.000324876
-0.00087985
-3.4839e-05
0.000196664
-0.000115711
0.000469838
-0.00022546
0.000661115
-0.000346714
0.000771309
-0.000462216
0.000803248
-0.000555432
0.000763307
-0.000611534
0.000662861
-0.000619177
0.000521225
-0.000572796
0.000364767
0.000223644
-0.000471564
-3.12071e-05
0.000227871
-0.000101428
0.000540058
-0.000192853
0.000752541
-0.000287177
0.000865633
-0.000365848
0.000881919
-0.000410588
0.000808046
-0.00040431
0.000656583
-0.000332831
0.000449745
-0.000188677
0.000220614
1.70233e-05
1.79434e-05
-2.69485e-05
0.00025482
-8.46191e-05
0.000597729
-0.000154421
0.000822342
-0.000216953
0.000928166
-0.000252161
0.000917126
-0.000239717
0.000795603
-0.000159895
0.000576761
4.21294e-06
0.000285637
0.000266127
-4.12999e-05
-0.000341483
0.000624634
-2.21023e-05
0.000276922
-6.54181e-05
0.000641044
-0.000110447
0.000867371
-0.00013655
0.000954269
-0.000121986
0.000902563
-4.41275e-05
0.000717744
0.000119884
0.000412749
0.000391278
1.42441e-05
0.000785263
-0.000435286
-0.000861909
0.00130569
-1.67026e-05
0.000293624
-4.3944e-05
0.000668286
-6.11914e-05
0.000884618
-4.64421e-05
0.00093952
2.38756e-05
0.000832245
0.000174884
0.000566736
0.000432858
0.000154774
0.000823342
-0.000376239
0.00136662
-0.000978563
-0.0015648
0.00206951
-1.07761e-05
0.000304401
-2.02931e-05
0.000677803
-6.86935e-06
0.000871194
5.29628e-05
0.000879688
0.000184719
0.000700489
0.000416147
0.000335308
0.000777153
-0.000206232
0.00129822
-0.000897303
0.00200556
-0.00168591
-0.00246957
0.00291033
-4.34206e-06
0.000308743
5.46597e-06
0.000667995
5.23491e-05
0.000824311
0.000161353
0.000770684
0.000359992
0.00050185
0.00067869
1.66096e-05
0.00115109
-0.000678633
0.00181301
-0.00155922
0.00269767
-0.00257057
-0.00359413
0.00382224
2.60793e-06
0.000306135
3.32898e-05
0.000637313
0.000116371
0.00074123
0.000278525
0.00060853
0.000549314
0.000231061
0.000961808
-0.000395884
0.00155331
-0.00127014
0.00236514
-0.00237105
0.00343856
-0.00364399
-0.00495466
0.00479909
1.00521e-05
0.000296083
6.31757e-05
0.000584189
0.000185145
0.00061926
0.00040437
0.000389305
0.000752483
-0.000117051
0.00126509
-0.000908494
0.0019829
-0.00198795
0.00295252
-0.00334068
0.00422401
-0.00491548
-0.00656481
0.00583417
1.80169e-05
0.000278066
9.5119e-05
0.000507087
0.000258646
0.000455734
0.000538834
0.000109117
0.000969421
-0.000547638
0.00158842
-0.00152749
0.00243945
-0.00283898
0.00357375
-0.00447498
0.00505028
-0.00639201
-0.00843482
0.00692028
2.65061e-05
0.00025156
0.000129114
0.000404479
0.000336831
0.000248017
0.000681843
-0.000235896
0.00120007
-0.00106587
0.00193182
-0.00225924
0.00292305
-0.00383021
0.00422838
-0.00578031
0.00591456
-0.00807818
-0.0105701
0.00804986
3.55199e-05
0.00021604
0.000165122
0.000274877
0.000419584
-6.44422e-06
0.000833196
-0.000649508
0.00144423
-0.0016769
0.00229527
-0.00311028
0.00343411
-0.00496904
0.00491707
-0.00726328
0.00681579
-0.00997691
-0.0129697
0.00921542
4.50425e-05
0.000170997
0.000203044
0.000116875
0.000506645
-0.000310045
0.000992425
-0.00113529
0.00170126
-0.00238573
0.00267828
-0.0040873
0.00397287
-0.00626363
0.00564143
-0.00893184
0.00775537
-0.0120909
-0.0156255
0.0104112
5.50344e-05
0.000115963
0.000242694
-7.07847e-05
0.000597549
-0.000664899
0.00115865
-0.00169639
0.00196982
-0.0031969
0.00307935
-0.00519683
0.00453888
-0.00772317
0.006404
-0.010797
0.00873746
-0.0144243
-0.0185261
0.011638
6.54286e-05
5.05341e-05
0.000283783
-0.000289139
0.000691571
-0.00107269
0.00133042
-0.00233523
0.00224748
-0.00411397
0.0034952
-0.00644455
0.00513004
-0.00935801
0.00720998
-0.0128769
0.00977647
-0.0169908
-0.0216603
0.0129107
7.61315e-05
-2.55974e-05
0.000325922
-0.000538929
0.000787721
-0.00153449
0.00150567
-0.00305318
0.00253035
-0.00513865
0.00391936
-0.00783356
0.00573824
-0.0111769
0.00806185
-0.0152005
0.0109374
-0.0198663
-0.0249585
0.0142356
8.70317e-05
-0.000112629
0.000368652
-0.00082055
0.00088481
-0.00205064
0.00168177
-0.00385015
0.00281301
-0.00626988
0.00434073
-0.00936128
0.00634
-0.0131762
0.00891134
-0.0177718
0.0122572
-0.0232122
-0.0298279
0.0171266
9.80159e-05
-0.000210645
0.000411501
-0.00113404
0.0009816
-0.00262074
0.00185598
-0.00472452
0.00308956
-0.00750347
0.00474608
-0.0110178
0.00690219
-0.0153323
0.00965823
-0.0205279
0.0131786
-0.0267325
-0.0343067
0.0176573
0.000108984
-0.000319629
0.000454043
-0.00147909
0.00107699
-0.00324369
0.00202593
-0.00567346
0.00335541
-0.00883295
0.00512686
-0.0127893
0.00740983
-0.0176152
0.0102831
-0.0234011
0.0138362
-0.0302856
-0.038566
0.0180955
0.000119861
-0.000439491
0.000495935
-0.00185517
0.00117011
-0.00391787
0.0021899
-0.00669325
0.00360772
-0.0102508
0.00547966
-0.0146612
0.00786325
-0.0199988
0.0108109
-0.0263488
0.0143542
-0.0338289
-0.0426541
0.0184423
0.000130594
-0.000570085
0.00053692
-0.00226149
0.00126032
-0.00464126
0.00234671
-0.00777964
0.0038449
-0.011749
0.00580361
-0.0166199
0.0082664
-0.0224616
0.011261
-0.0293434
0.0147782
-0.0373462
-0.046602
0.0187262
0.000141145
-0.00071123
0.000576792
-0.00269714
0.00134709
-0.00541156
0.00249547
-0.00892802
0.00406589
-0.0133194
0.00609844
-0.0186525
0.00862222
-0.0249854
0.0116431
-0.0323643
0.0151232
-0.0408263
-0.0504279
0.0189491
0.000151483
-0.000862713
0.000615366
-0.00316102
0.00142997
-0.00622617
0.00263538
-0.0101334
0.00426972
-0.0149537
0.00636359
-0.0207463
0.00893179
-0.0275536
0.0119611
-0.0353936
0.0153928
-0.0442581
-0.0541363
0.0191013
0.00016157
-0.00102428
0.000652445
-0.0036519
0.00150847
-0.00708219
0.00276557
-0.0113905
0.0044552
-0.0166434
0.00659787
-0.022889
0.00919443
-0.0301501
0.0122148
-0.038414
0.0155846
-0.0476278
-0.0577223
0.0191707
0.000171357
-0.00119564
0.000687787
-0.00416833
0.001582
-0.0079764
0.00288501
-0.0126935
0.00462084
-0.0183792
0.00679943
-0.0250676
0.00940809
-0.0327588
0.0124018
-0.0414076
0.0156935
-0.0509196
-0.0611749
0.0191461
0.000180773
-0.00137641
0.000721102
-0.00470866
0.00164989
-0.00890519
0.00299251
-0.0140362
0.00476483
-0.0201515
0.0069659
-0.0272687
0.00956984
-0.0353627
0.0125182
-0.044356
0.015714
-0.0541155
-0.0644795
0.0190186
0.000189733
-0.00156615
0.000752041
-0.00527096
0.00171136
-0.0098645
0.00308668
-0.0154115
0.00488514
-0.02195
0.00709459
-0.0294781
0.00967644
-0.0379446
0.0125601
-0.0472397
0.0156413
-0.0571966
-0.0676199
0.0187816
0.000198132
-0.00176428
0.000780207
-0.00585304
0.00176553
-0.0108498
0.00316606
-0.016812
0.00497961
-0.0237635
0.00718275
-0.0316812
0.0097247
-0.0404865
0.0125243
-0.0500393
0.0154717
-0.060144
-0.0705798
0.0184316
0.000205849
-0.00197013
0.000805165
-0.00645236
0.00181148
-0.0118561
0.00322911
-0.0182297
0.00504612
-0.0255805
0.00722778
-0.0338629
0.00971189
-0.0429706
0.0124083
-0.0527357
0.0152035
-0.0629392
-0.0733439
0.0179676
0.000212756
-0.00218288
0.000826457
-0.00706606
0.00184828
-0.012878
0.00327432
-0.0196557
0.00508264
-0.0273888
0.0072274
-0.0360077
0.0096359
-0.0453792
0.0122106
-0.0553103
0.0148368
-0.0655654
-0.0758986
0.0173915
0.000218719
-0.0024016
0.000843621
-0.00769096
0.00187499
-0.0139093
0.0033003
-0.021081
0.00508742
-0.029176
0.00717983
-0.0381001
0.00949547
-0.0476948
0.0119312
-0.0577461
0.0143731
-0.0680073
-0.0782326
0.0167071
0.000223601
-0.0026252
0.000856206
-0.00832356
0.00189075
-0.0149439
0.00330577
-0.022496
0.00505899
-0.0309292
0.00708384
-0.0401249
0.0092902
-0.0499012
0.0115713
-0.0600272
0.0138158
-0.0702518
-0.0803369
0.0159201
0.000227273
-0.00285248
0.00086379
-0.00896008
0.00189479
-0.0159749
0.00328968
-0.0238909
0.00499631
-0.0326358
0.00693885
-0.0420675
0.00902064
-0.0519829
0.0111331
-0.0621397
0.0131696
-0.0722884
-0.082205
0.0150378
0.00022961
-0.00308209
0.000865991
-0.00959646
0.00188644
-0.0169953
0.00325123
-0.0252557
0.00489875
-0.0342833
0.00674494
-0.0439137
0.00868819
-0.0539262
0.0106201
-0.0640716
0.0124402
-0.0741085
-0.0838331
0.0140683
0.000230501
-0.00331259
0.00086248
-0.0102284
0.00186517
-0.017998
0.00318987
-0.0265804
0.00476612
-0.0358596
0.00650284
-0.0456504
0.00829511
-0.0557185
0.0100365
-0.065813
0.0116342
-0.0757062
-0.0852193
0.0130205
0.000229849
-0.00354244
0.00085299
-0.0108516
0.00183062
-0.0189757
0.00310537
-0.0278551
0.00459873
-0.037353
0.0062139
-0.0472655
0.00784437
-0.0573489
0.00938737
-0.067356
0.0107588
-0.0770776
-0.086364
0.0119035
0.000227573
-0.00377001
0.000837327
-0.0114613
0.00178258
-0.0199209
0.00299778
-0.0290703
0.00439732
-0.0387525
0.00588007
-0.0487483
0.00733959
-0.0588085
0.00867825
-0.0686946
0.00982153
-0.0782209
-0.0872692
0.0107267
0.000223612
-0.00399362
0.000815369
-0.0120531
0.00172101
-0.0208265
0.00286744
-0.0302168
0.00416303
-0.0400481
0.00550379
-0.0500891
0.0067849
-0.0600896
0.00791512
-0.0698249
0.00883011
-0.0791359
-0.0879381
0.00949909
0.000217924
-0.00421155
0.000787074
-0.0126222
0.00164604
-0.0216855
0.00271499
-0.0312857
0.00389742
-0.0412305
0.00508796
-0.0512796
0.00618481
-0.0611864
0.00710419
-0.0707442
0.00779223
-0.0798239
-0.0883755
0.00822958
0.000210491
-0.00442204
0.00075248
-0.0131642
0.00155799
-0.022491
0.00254133
-0.0322691
0.0036024
-0.0422916
0.00463583
-0.052313
0.00554415
-0.0620947
0.00625181
-0.0714519
0.00671547
-0.0802876
-0.0885865
0.00692651
0.000201313
-0.00462335
0.000711704
-0.0136746
0.00145732
-0.0232366
0.00234762
-0.0331594
0.00328018
-0.0432241
0.00415097
-0.0531838
0.00486795
-0.0628117
0.0053643
-0.0719483
0.0056071
-0.0805304
-0.0885772
0.00559774
0.000190416
-0.00481377
0.000664938
-0.0141491
0.00134463
-0.0239163
0.00213522
-0.03395
0.00293321
-0.0440221
0.00363717
-0.0538878
0.00416132
-0.0633358
0.00444791
-0.0722349
0.00447413
-0.0805566
-0.0883535
0.0042505
0.000177845
-0.00499161
0.000612452
-0.0145838
0.0012207
-0.0245246
0.00190571
-0.034635
0.00256418
-0.0446806
0.00309837
-0.054422
0.00342943
-0.0636669
0.0035087
-0.0723141
0.00332312
-0.080371
-0.087922
0.00289153
0.000163668
-0.00515528
0.000554578
-0.0149747
0.0010864
-0.0250564
0.0016608
-0.0352094
0.00217592
-0.0451957
0.00253864
-0.0547847
0.00267748
-0.0638057
0.00255262
-0.0721893
0.00215977
-0.0799782
-0.0872893
0.00152709
0.000147971
-0.00530325
0.000491712
-0.0153184
0.000942711
-0.0255074
0.00140237
-0.035669
0.00177138
-0.0455647
0.0019621
-0.0549754
0.00191067
-0.0637543
0.0015859
-0.0718645
0.000989537
-0.0793818
-0.0864421
0.000142339
0.000130859
-0.00543411
0.000424303
-0.0156118
0.000790698
-0.0258738
0.00113235
-0.0360107
0.00135357
-0.0457859
0.00137283
-0.0549947
0.00113396
-0.0635155
0.000614185
-0.0713447
-0.000172469
-0.0785952
-0.085417
-0.00119755
0.000112453
-0.00554656
0.00035284
-0.0158522
0.000631493
-0.0261525
0.000852763
-0.0362319
0.000925519
-0.0458587
0.00077486
-0.054844
0.000352182
-0.0630928
-0.000358458
-0.0706341
-0.00134038
-0.0776132
-0.0842122
-0.00254521
9.28866e-05
-0.00563945
0.000277848
-0.0160372
0.000466269
-0.0263409
0.000565631
-0.0363313
0.000490227
-0.0457833
0.000172209
-0.054526
-0.000429909
-0.0624907
-0.00132576
-0.0697382
-0.00249307
-0.0764459
-0.0828261
-0.00387918
7.23071e-05
-0.00571175
0.000199875
-0.0161648
0.000296219
-0.0264372
0.00027297
-0.0363081
5.07476e-05
-0.0455611
-0.000431387
-0.0540439
-0.00120769
-0.0617144
-0.00228283
-0.0686631
-0.00363083
-0.0750979
-0.0812624
-0.00519453
5.08752e-05
-0.00576263
0.000119478
-0.0162334
0.000122535
-0.0264403
-2.30802e-05
-0.0361624
-0.000390443
-0.0451937
-0.00103223
-0.0534021
-0.00197673
-0.0607699
-0.00322475
-0.0674151
-0.00474881
-0.0735739
-0.0795238
-0.00648739
2.88055e-05
-0.00579144
3.72038e-05
-0.0162418
-5.36605e-05
-0.0263494
-0.000321186
-0.0358949
-0.000830416
-0.0446845
-0.0016269
-0.0526056
-0.00273282
-0.0596639
-0.00414656
-0.0660013
-0.00584198
-0.0718784
-0.0776117
-0.00775404
5.79134e-06
-0.00579723
-4.64322e-05
-0.0161895
-0.000231267
-0.0261646
-0.000619015
-0.0355072
-0.00126681
-0.0440367
-0.00221233
-0.0516601
-0.00347208
-0.0584042
-0.0050433
-0.0644301
-0.00690491
-0.0700168
-0.0755255
-0.00899113
-1.73517e-05
-0.00577987
-0.000130846
-0.016076
-0.000409166
-0.0258863
-0.000915142
-0.0350012
-0.00169747
-0.0432543
-0.00278581
-0.0505717
-0.00419102
-0.056999
-0.00591017
-0.0627109
-0.00793176
-0.0679953
-0.0732616
-0.0101956
-4.06681e-05
-0.00573921
-0.000215526
-0.0159012
-0.000586396
-0.0255154
-0.00120809
-0.0343795
-0.00212054
-0.0423419
-0.00334514
-0.0493471
-0.00488678
-0.0554574
-0.00674263
-0.0608551
-0.00891545
-0.0658224
-0.0708159
-0.0113612
-6.41908e-05
-0.00567502
-0.000300013
-0.0156654
-0.000762039
-0.0250534
-0.00149655
-0.033645
-0.00253446
-0.041304
-0.00388866
-0.0479929
-0.00555735
-0.0537887
-0.00753633
-0.0588761
-0.00984337
-0.0635154
-0.0681774
-0.0124819
-8.76991e-05
-0.00558732
-0.000383835
-0.0153692
-0.000935236
-0.024502
-0.00177934
-0.0328009
-0.00293797
-0.0401454
-0.00441547
-0.0465154
-0.00620246
-0.0520017
-0.00828871
-0.0567899
-0.0107012
-0.061103
-0.0653065
-0.013572
-0.000111043
-0.00547627
-0.000466538
-0.0150137
-0.00110517
-0.0238633
-0.00205537
-0.0318507
-0.00332999
-0.0388707
-0.00492531
-0.0449201
-0.00682481
-0.0501022
-0.00900621
-0.0546085
-0.01143
-0.0586792
-0.0626025
-0.014134
-0.000134081
-0.00534219
-0.000547681
-0.0146001
-0.00127105
-0.02314
-0.00232355
-0.0307982
-0.00370939
-0.0374849
-0.0054176
-0.0432119
-0.0074263
-0.0480935
-0.00970921
-0.0523256
-0.0122378
-0.0561506
-0.0598069
-0.0150334
-0.000156678
-0.00518552
-0.000626838
-0.01413
-0.00143209
-0.0223347
-0.00258277
-0.0296475
-0.00407473
-0.0359929
-0.00589038
-0.0413963
-0.00800348
-0.0459804
-0.0103859
-0.0499432
-0.0130136
-0.0535229
-0.0569336
-0.0158869
-0.000178701
-0.00500681
-0.0007036
-0.0136051
-0.00158757
-0.0214507
-0.00283197
-0.0284031
-0.00442461
-0.0344003
-0.00634165
-0.0394792
-0.00855281
-0.0437692
-0.0110279
-0.0474681
-0.0137431
-0.0508077
-0.053987
-0.0166897
-0.000200028
-0.00480679
-0.000777587
-0.0130275
-0.00173679
-0.0204915
-0.0030702
-0.0270697
-0.00475783
-0.0327127
-0.00676996
-0.0374671
-0.00907248
-0.0414667
-0.0116331
-0.0449074
-0.0144273
-0.0480136
-0.0509727
-0.0174417
-0.000220541
-0.00458625
-0.000848448
-0.0123996
-0.00187915
-0.0194608
-0.00329663
-0.0256522
-0.00507345
-0.0309358
-0.00717432
-0.0353662
-0.00956161
-0.0390794
-0.0122013
-0.0422677
-0.0150679
-0.045147
-0.0478946
-0.018146
-0.000240136
-0.00434611
-0.00091587
-0.0117239
-0.00201412
-0.0183626
-0.00351055
-0.0241558
-0.00537069
-0.0290757
-0.00755403
-0.0331829
-0.0100198
-0.0366136
-0.0127324
-0.0395551
-0.0156661
-0.0422133
-0.0447559
-0.0188048
-0.000258717
-0.00408739
-0.000979568
-0.011003
-0.00214121
-0.0172009
-0.00371138
-0.0225856
-0.00564893
-0.0271382
-0.00790859
-0.0309232
-0.0104468
-0.0340755
-0.0132269
-0.036775
-0.016223
-0.0392171
-0.0415594
-0.0194195
-0.000276195
-0.0038112
-0.00103929
-0.0102399
-0.00226001
-0.0159802
-0.00389858
-0.0209471
-0.00590765
-0.0251291
-0.0082376
-0.0285932
-0.0108424
-0.0314706
-0.0136847
-0.0339327
-0.016739
-0.0361629
-0.0383078
-0.0199905
-0.000292492
-0.00351871
-0.00109481
-0.00943761
-0.00237016
-0.0147049
-0.00407171
-0.0192455
-0.0061464
-0.0230544
-0.0085407
-0.0261989
-0.0112065
-0.0288048
-0.014106
-0.0310333
-0.0172142
-0.0330546
-0.0350044
-0.0205177
-0.000307537
-0.00321117
-0.00114592
-0.00859923
-0.00247132
-0.0133795
-0.00423037
-0.0174865
-0.0063648
-0.02092
-0.00881758
-0.0237462
-0.0115389
-0.0260835
-0.0144905
-0.0280816
-0.0176485
-0.0298967
-0.0316522
-0.0210007
-0.000321265
-0.0028899
-0.00119244
-0.00772805
-0.0025632
-0.0120087
-0.00437421
-0.0156754
-0.00656247
-0.0187317
-0.0090679
-0.0212407
-0.0118392
-0.0233122
-0.0148382
-0.0250826
-0.0180416
-0.0266932
-0.028255
-0.0214388
-0.000333617
-0.00255629
-0.00123421
-0.00682746
-0.00264554
-0.0105974
-0.00450289
-0.0138181
-0.0067391
-0.0164955
-0.00929137
-0.0186885
-0.0121073
-0.0204963
-0.0151486
-0.0220413
-0.018393
-0.0234488
-0.0248168
-0.0218312
-0.000344542
-0.00221175
-0.00127108
-0.00590092
-0.00271811
-0.00915034
-0.00461615
-0.0119201
-0.00689436
-0.0142173
-0.00948769
-0.0160951
-0.0123427
-0.0176413
-0.0154213
-0.0189627
-0.0187021
-0.020168
-0.0213419
-0.0221769
-0.000353994
-0.00185775
-0.00130293
-0.00495198
-0.0027807
-0.00767257
-0.00471371
-0.00998705
-0.007028
-0.011903
-0.00965656
-0.0134666
-0.0125452
-0.0147527
-0.015656
-0.0158519
-0.0189683
-0.0168557
-0.017835
-0.0224751
-0.000361933
-0.00149582
-0.00132964
-0.00398427
-0.00283314
-0.00616908
-0.00479537
-0.00802481
-0.00713977
-0.00955859
-0.00979772
-0.0108086
-0.0127144
-0.011836
-0.0158522
-0.0127142
-0.0191911
-0.0135168
-0.0143011
-0.022725
-0.000368325
-0.00112749
-0.00135113
-0.00300147
-0.00287527
-0.00464494
-0.00486093
-0.00603915
-0.00722944
-0.00719008
-0.00991096
-0.00812711
-0.0128502
-0.0088968
-0.0160097
-0.00955469
-0.0193699
-0.0101565
-0.0107452
-0.0229258
-0.000373143
-0.000754349
-0.0013673
-0.00200731
-0.00290697
-0.00310527
-0.00491023
-0.00403589
-0.00729686
-0.00480346
-0.00999606
-0.00542791
-0.0129522
-0.00594062
-0.016128
-0.0063789
-0.0195045
-0.00678004
-0.00717275
-0.0230769
-0.000376367
-0.000377982
-0.00137812
-0.00100556
-0.00292816
-0.00155523
-0.00494317
-0.00202089
-0.00734187
-0.00240475
-0.0100529
-0.00271691
-0.0130204
-0.00297314
-0.0162071
-0.00319218
-0.0195944
-0.00339274
-0.00358917
-0.023178
-0.000377982
1.64745e-11
-0.00138354
3.12614e-11
-0.00293877
5.74368e-11
-0.00495966
1.11901e-10
-0.00736441
1.71758e-10
-0.0100813
2.20078e-10
-0.0130545
2.54141e-10
-0.0162466
2.76286e-10
-0.0196394
2.8874e-10
2.93695e-10
-0.0232286
-0.000377982
0.000377982
-0.00138354
0.00100556
-0.00293877
0.00155523
-0.00495966
0.00202089
-0.00736441
0.00240475
-0.0100813
0.00271691
-0.0130545
0.00297314
-0.0162466
0.00319219
-0.0196394
0.00339274
0.00358917
-0.0232286
-0.000376367
0.000754349
-0.00137812
0.00200731
-0.00292816
0.00310527
-0.00494317
0.00403589
-0.00734187
0.00480346
-0.0100529
0.00542791
-0.0130204
0.00594062
-0.0162071
0.0063789
-0.0195944
0.00678005
0.00717275
-0.023178
-0.000373143
0.00112749
-0.0013673
0.00300147
-0.00290697
0.00464494
-0.00491023
0.00603915
-0.00729686
0.00719008
-0.00999606
0.00812712
-0.0129522
0.0088968
-0.016128
0.00955469
-0.0195045
0.0101565
0.0107452
-0.0230769
-0.000368325
0.00149582
-0.00135113
0.00398427
-0.00287527
0.00616908
-0.00486093
0.00802481
-0.00722944
0.0095586
-0.00991096
0.0108086
-0.0128502
0.011836
-0.0160097
0.0127142
-0.0193699
0.0135168
0.0143011
-0.0229258
-0.000361933
0.00185775
-0.00132964
0.00495198
-0.00283314
0.00767257
-0.00479537
0.00998705
-0.00713977
0.011903
-0.00979772
0.0134666
-0.0127144
0.0147527
-0.0158522
0.0158519
-0.0191911
0.0168557
0.017835
-0.022725
-0.000353994
0.00221175
-0.00130293
0.00590092
-0.0027807
0.00915034
-0.00471371
0.0119201
-0.007028
0.0142173
-0.00965656
0.0160951
-0.0125452
0.0176413
-0.015656
0.0189627
-0.0189683
0.020168
0.0213419
-0.0224751
-0.000344542
0.00255629
-0.00127108
0.00682746
-0.00271811
0.0105974
-0.00461615
0.0138181
-0.00689436
0.0164955
-0.00948769
0.0186885
-0.0123427
0.0204963
-0.0154213
0.0220413
-0.0187021
0.0234488
0.0248168
-0.0221769
-0.000333617
0.0028899
-0.00123421
0.00772805
-0.00264554
0.0120087
-0.00450289
0.0156754
-0.0067391
0.0187317
-0.00929137
0.0212407
-0.0121073
0.0233122
-0.0151486
0.0250826
-0.018393
0.0266932
0.028255
-0.0218312
-0.000321265
0.00321117
-0.00119244
0.00859923
-0.0025632
0.0133795
-0.00437421
0.0174865
-0.00656247
0.02092
-0.0090679
0.0237462
-0.0118392
0.0260835
-0.0148382
0.0280816
-0.0180416
0.0298967
0.0316522
-0.0214388
-0.000307537
0.00351871
-0.00114592
0.00943761
-0.00247132
0.0147049
-0.00423037
0.0192455
-0.0063648
0.0230544
-0.00881758
0.0261989
-0.0115389
0.0288048
-0.0144905
0.0310333
-0.0176485
0.0330546
0.0350044
-0.0210007
-0.000292492
0.0038112
-0.00109481
0.0102399
-0.00237016
0.0159802
-0.00407171
0.0209471
-0.0061464
0.0251291
-0.0085407
0.0285932
-0.0112065
0.0314706
-0.014106
0.0339327
-0.0172142
0.0361629
0.0383078
-0.0205177
-0.000276195
0.00408739
-0.00103929
0.011003
-0.00226002
0.0172009
-0.00389858
0.0225856
-0.00590765
0.0271382
-0.0082376
0.0309232
-0.0108424
0.0340755
-0.0136847
0.036775
-0.016739
0.0392171
0.0415594
-0.0199905
-0.000258717
0.00434611
-0.000979568
0.0117239
-0.00214121
0.0183626
-0.00371138
0.0241558
-0.00564893
0.0290757
-0.00790859
0.0331829
-0.0104468
0.0366136
-0.0132269
0.0395551
-0.016223
0.0422133
0.0447559
-0.0194195
-0.000240136
0.00458625
-0.00091587
0.0123996
-0.00201412
0.0194608
-0.00351055
0.0256522
-0.00537069
0.0309358
-0.00755403
0.0353662
-0.0100198
0.0390794
-0.0127324
0.0422677
-0.0156661
0.045147
0.0478946
-0.0188048
-0.000220541
0.00480679
-0.000848448
0.0130275
-0.00187915
0.0204915
-0.00329663
0.0270697
-0.00507345
0.0327127
-0.00717432
0.0374671
-0.00956161
0.0414667
-0.0122013
0.0449074
-0.0150679
0.0480136
0.0509727
-0.018146
-0.000200028
0.00500681
-0.000777587
0.0136051
-0.00173679
0.0214507
-0.0030702
0.0284031
-0.00475783
0.0344003
-0.00676996
0.0394792
-0.00907248
0.0437692
-0.0116331
0.0474681
-0.0144273
0.0508077
0.053987
-0.0174417
-0.000178701
0.00518552
-0.0007036
0.01413
-0.00158757
0.0223347
-0.00283197
0.0296475
-0.00442461
0.0359929
-0.00634165
0.0413963
-0.00855281
0.0459804
-0.0110279
0.0499432
-0.0137431
0.0535229
0.0569336
-0.0166897
-0.000156678
0.00534219
-0.000626838
0.0146001
-0.00143209
0.02314
-0.00258277
0.0307982
-0.00407473
0.0374849
-0.00589038
0.0432119
-0.00800348
0.0480935
-0.0103859
0.0523256
-0.0130136
0.0561506
0.0598069
-0.0158869
-0.000134081
0.00547627
-0.000547681
0.0150137
-0.00127105
0.0238633
-0.00232355
0.0318507
-0.00370939
0.0388707
-0.0054176
0.0449201
-0.0074263
0.0501022
-0.00970921
0.0546085
-0.0122378
0.0586792
0.0626025
-0.0150334
-0.000111043
0.00558732
-0.000466538
0.0153692
-0.00110517
0.024502
-0.00205537
0.0328009
-0.00332999
0.0401454
-0.00492531
0.0465154
-0.00682481
0.0520017
-0.00900621
0.0567899
-0.01143
0.061103
0.0653065
-0.014134
-8.76991e-05
0.00567502
-0.000383835
0.0156654
-0.000935236
0.0250534
-0.00177934
0.033645
-0.00293797
0.041304
-0.00441547
0.0479929
-0.00620246
0.0537887
-0.00828871
0.0588761
-0.0107012
0.0635154
0.0681774
-0.013572
-6.41908e-05
0.00573921
-0.000300013
0.0159012
-0.000762039
0.0255154
-0.00149655
0.0343795
-0.00253446
0.0423419
-0.00388866
0.0493471
-0.00555735
0.0554574
-0.00753633
0.0608551
-0.00984337
0.0658224
0.0708159
-0.0124819
-4.06681e-05
0.00577988
-0.000215526
0.016076
-0.000586396
0.0258863
-0.00120809
0.0350012
-0.00212054
0.0432543
-0.00334514
0.0505717
-0.00488678
0.056999
-0.00674263
0.0627109
-0.00891545
0.0679953
0.0732616
-0.0113612
-1.73517e-05
0.00579723
-0.000130846
0.0161895
-0.000409166
0.0261646
-0.000915142
0.0355072
-0.00169747
0.0440367
-0.00278581
0.0516601
-0.00419102
0.0584042
-0.00591017
0.0644301
-0.00793176
0.0700168
0.0755255
-0.0101956
5.79134e-06
0.00579144
-4.64322e-05
0.0162418
-0.000231267
0.0263494
-0.000619016
0.0358949
-0.00126681
0.0446845
-0.00221233
0.0526056
-0.00347208
0.0596639
-0.0050433
0.0660013
-0.00690491
0.0718784
0.0776117
-0.00899113
2.88055e-05
0.00576263
3.72038e-05
0.0162334
-5.36605e-05
0.0264403
-0.000321186
0.0361624
-0.000830416
0.0451937
-0.0016269
0.0534021
-0.00273282
0.0607699
-0.00414656
0.0674151
-0.00584198
0.0735739
0.0795238
-0.00775404
5.08752e-05
0.00571175
0.000119478
0.0161648
0.000122535
0.0264372
-2.30802e-05
0.0363081
-0.000390443
0.0455611
-0.00103223
0.0540439
-0.00197673
0.0617144
-0.00322475
0.0686631
-0.00474881
0.0750979
0.0812624
-0.00648739
7.23071e-05
0.00563945
0.000199875
0.0160372
0.000296219
0.0263409
0.00027297
0.0363313
5.07476e-05
0.0457833
-0.000431387
0.054526
-0.00120769
0.0624907
-0.00228283
0.0697382
-0.00363083
0.0764459
0.0828261
-0.00519453
9.28866e-05
0.00554656
0.000277848
0.0158522
0.000466269
0.0261525
0.000565631
0.0362319
0.000490227
0.0458587
0.000172209
0.054844
-0.000429909
0.0630928
-0.00132576
0.0706341
-0.00249307
0.0776132
0.0842122
-0.00387918
0.000112453
0.00543411
0.00035284
0.0156118
0.000631493
0.0258738
0.000852763
0.0360107
0.000925519
0.0457859
0.00077486
0.0549947
0.000352182
0.0635155
-0.000358458
0.0713447
-0.00134038
0.0785952
0.085417
-0.00254521
0.000130859
0.00530325
0.000424303
0.0153184
0.000790698
0.0255074
0.00113235
0.035669
0.00135357
0.0455647
0.00137283
0.0549754
0.00113396
0.0637543
0.000614185
0.0718645
-0.000172469
0.0793818
0.0864421
-0.00119755
0.000147971
0.00515528
0.000491712
0.0149747
0.000942711
0.0250564
0.00140237
0.0352094
0.00177138
0.0451957
0.0019621
0.0547847
0.00191067
0.0638057
0.0015859
0.0721893
0.000989538
0.0799782
0.0872893
0.000142339
0.000163668
0.00499161
0.000554578
0.0145838
0.0010864
0.0245246
0.0016608
0.034635
0.00217592
0.0446806
0.00253864
0.054422
0.00267748
0.0636669
0.00255263
0.0723141
0.00215977
0.080371
0.087922
0.0015271
0.000177845
0.00481377
0.000612452
0.0141491
0.0012207
0.0239163
0.00190571
0.03395
0.00256418
0.0440221
0.00309837
0.0538878
0.00342943
0.0633358
0.00350871
0.0722349
0.00332312
0.0805566
0.0883535
0.00289153
0.000190416
0.00462335
0.000664938
0.0136746
0.00134463
0.0232366
0.00213522
0.0331594
0.00293321
0.0432241
0.00363717
0.0531838
0.00416132
0.0628117
0.00444791
0.0719483
0.00447413
0.0805304
0.0885772
0.0042505
0.000201313
0.00442204
0.000711704
0.0131642
0.00145732
0.022491
0.00234762
0.0322691
0.00328018
0.0422916
0.00415097
0.052313
0.00486795
0.0620947
0.0053643
0.0714519
0.0056071
0.0802876
0.0885865
0.00559774
0.000210491
0.00421155
0.00075248
0.0126222
0.00155799
0.0216855
0.00254133
0.0312857
0.0036024
0.0412305
0.00463583
0.0512796
0.00554415
0.0611864
0.00625181
0.0707442
0.00671547
0.0798239
0.0883755
0.00692651
0.000217924
0.00399362
0.000787074
0.0120531
0.00164604
0.0208265
0.00271499
0.0302168
0.00389742
0.0400481
0.00508796
0.0500891
0.00618481
0.0600896
0.00710419
0.0698249
0.00779224
0.0791359
0.0879381
0.00822958
0.000223612
0.00377001
0.000815369
0.0114613
0.00172101
0.0199209
0.00286744
0.0290703
0.00416303
0.0387525
0.00550379
0.0487483
0.0067849
0.0588085
0.00791512
0.0686946
0.00883011
0.0782209
0.0872692
0.0094991
0.000227573
0.00354244
0.000837327
0.0108516
0.00178258
0.0189757
0.00299778
0.0278551
0.00439732
0.037353
0.00588007
0.0472655
0.00733959
0.0573489
0.00867825
0.067356
0.00982153
0.0770776
0.086364
0.0107267
0.000229849
0.00331259
0.00085299
0.0102284
0.00183062
0.017998
0.00310537
0.0265804
0.00459873
0.0358596
0.0062139
0.0456504
0.00784437
0.0557185
0.00938738
0.065813
0.0107588
0.0757062
0.0852193
0.0119035
0.000230501
0.00308209
0.00086248
0.00959646
0.00186517
0.0169953
0.00318987
0.0252557
0.00476612
0.0342833
0.00650284
0.0439137
0.00829511
0.0539262
0.0100365
0.0640716
0.0116342
0.0741085
0.0838331
0.0130205
0.00022961
0.00285248
0.000865991
0.00896008
0.00188644
0.0159749
0.00325123
0.0238909
0.00489875
0.0326358
0.00674494
0.0420675
0.00868819
0.0519829
0.0106201
0.0621397
0.0124402
0.0722884
0.082205
0.0140683
0.000227273
0.0026252
0.00086379
0.00832356
0.00189479
0.0149439
0.00328968
0.022496
0.00499631
0.0309292
0.00693885
0.0401249
0.00902064
0.0499012
0.0111331
0.0600272
0.0131696
0.0702518
0.0803369
0.0150378
0.000223601
0.0024016
0.000856206
0.00769096
0.00189075
0.0139093
0.00330577
0.021081
0.00505899
0.029176
0.00708384
0.0381001
0.0092902
0.0476948
0.0115713
0.0577461
0.0138158
0.0680073
0.0782326
0.0159201
0.000218719
0.00218288
0.000843621
0.00706606
0.00187499
0.012878
0.0033003
0.0196557
0.00508742
0.0273888
0.00717983
0.0360077
0.00949547
0.0453792
0.0119312
0.0553103
0.0143731
0.0655654
0.0758986
0.0167071
0.000212756
0.00197013
0.000826457
0.00645236
0.00184828
0.0118561
0.00327432
0.0182297
0.00508264
0.0255805
0.0072274
0.0338629
0.0096359
0.0429706
0.0122106
0.0527357
0.0148368
0.0629392
0.0733439
0.0173915
0.000205849
0.00176428
0.000805165
0.00585304
0.00181148
0.0108498
0.00322911
0.016812
0.00504612
0.0237635
0.00722778
0.0316812
0.00971189
0.0404865
0.0124083
0.0500393
0.0152035
0.060144
0.0705798
0.0179676
0.000198132
0.00156615
0.000780207
0.00527096
0.00176553
0.0098645
0.00316606
0.0154115
0.00497961
0.02195
0.00718275
0.0294781
0.0097247
0.0379446
0.0125243
0.0472397
0.0154717
0.0571966
0.0676199
0.0184316
0.000189733
0.00137641
0.000752041
0.00470866
0.00171136
0.00890519
0.00308668
0.0140362
0.00488514
0.0201515
0.00709459
0.0272687
0.00967644
0.0353627
0.0125601
0.044356
0.0156413
0.0541155
0.0644795
0.0187816
0.000180773
0.00119564
0.000721102
0.00416833
0.00164989
0.0079764
0.00299251
0.0126935
0.00476483
0.0183792
0.0069659