/*--------------------------------*- C++ -*----------------------------------*\
  =========                 |
  \\      /  F ield         | OpenFOAM: The Open Source CFD Toolbox
   \\    /   O peration     | Website:  https://openfoam.org
    \\  /    A nd           | Version:  7
     \\/     M anipulation  |
\*---------------------------------------------------------------------------*/
FoamFile
{
    version     2.0;
    format      ascii;
    class       volVectorField;
    location    "15";
    object      U;
}
// * * * * * * * * * * * * * * * * * * * * * * * * * * * * * * * * * * * * * //

dimensions      [0 1 -1 0 0 0 0];

internalField   nonuniform List<vector> 
8500
(
(-0.000760958 0.000601771 3.65841e-22)
(-0.0038455 0.0013109 -1.17109e-21)
(-0.00929763 0.00165898 -1.44297e-21)
(-0.0153963 0.00174183 1.50632e-21)
(-0.0213982 0.00163161 -1.4482e-21)
(-0.0267669 0.00139446 -8.00615e-22)
(-0.0311428 0.00109182 1.40937e-21)
(-0.0343911 0.0007812 1.79506e-21)
(-0.0365624 0.000510217 -2.98325e-22)
(-0.0377598 0.000322273 8.92383e-22)
(-0.000844502 0.00179199 -4.05027e-22)
(-0.00398368 0.00390069 1.39119e-21)
(-0.00937034 0.00493297 -3.45808e-21)
(-0.015314 0.00517415 3.29278e-21)
(-0.0210838 0.00483961 1.54831e-22)
(-0.026153 0.00412694 2.61458e-21)
(-0.0301704 0.00321987 -4.6851e-21)
(-0.0330105 0.00229081 -7.02489e-21)
(-0.0347324 0.00148338 -1.39612e-21)
(-0.0353932 0.000930712 3.21448e-21)
(-0.00100813 0.00294256 3.77398e-22)
(-0.00425171 0.00639519 3.07174e-21)
(-0.00950432 0.0080761 7.62823e-21)
(-0.0151361 0.00845369 -7.23506e-21)
(-0.0204405 0.00788339 -1.7017e-21)
(-0.0249107 0.00669163 -1.60168e-21)
(-0.0282112 0.00518272 8.4977e-21)
(-0.0302355 0.00364353 5.42156e-21)
(-0.0310602 0.00231556 1.32876e-21)
(-0.0306469 0.00143029 -9.96451e-21)
(-0.001245 0.00402816 1.33901e-21)
(-0.00463301 0.00873324 -1.79661e-21)
(-0.00967681 0.0110043 -1.42622e-20)
(-0.0148357 0.0114824 1.32005e-21)
(-0.0194394 0.0106578 4.2754e-21)
(-0.0230103 0.00898135 -3.44675e-21)
(-0.0252361 0.00687511 -1.59099e-22)
(-0.0260383 0.00473937 -1.47867e-21)
(-0.0255227 0.0029161 3.42282e-21)
(-0.0234935 0.00174982 9.91798e-21)
(-0.00154505 0.00502496 9.36697e-22)
(-0.00510308 0.0108572 -5.8594e-21)
(-0.00985387 0.0136384 1.47836e-20)
(-0.0143729 0.0141681 -7.07613e-21)
(-0.0180371 0.0130642 -2.78638e-23)
(-0.0204071 0.010896 1.05386e-20)
(-0.0212012 0.00819909 -4.97689e-21)
(-0.0203769 0.0054854 5.33884e-22)
(-0.0180854 0.00320336 -2.17608e-21)
(-0.0138932 0.00184475 7.83408e-22)
(-0.0018952 0.00591121 1.12756e-20)
(-0.00562975 0.0127139 1.51087e-20)
(-0.00999069 0.0159053 -4.04528e-21)
(-0.0136943 0.0164261 8.10832e-21)
(-0.0161755 0.0150128 2.68387e-21)
(-0.0170412 0.0123453 -3.9382e-21)
(-0.016047 0.00906708 -1.59423e-21)
(-0.0131925 0.00579907 -6.96767e-21)
(-0.00869097 0.00310744 1.57959e-21)
(-0.00182159 0.00174055 -9.17801e-21)
(-0.00227962 0.00666758 -1.08816e-20)
(-0.00617368 0.014256 -7.88119e-21)
(-0.0100319 0.0177401 6.83151e-21)
(-0.0127338 0.0181817 -1.23716e-20)
(-0.0137816 0.0164253 1.48202e-21)
(-0.012837 0.0132517 1.55577e-20)
(-0.00969838 0.00940526 -2.92836e-21)
(-0.00441105 0.00561405 1.92133e-20)
(0.00276885 0.00255666 -4.70044e-22)
(0.0127411 0.00131004 -8.07485e-21)
(-0.00267999 0.00727744 9.30722e-21)
(-0.00668877 0.0154425 -1.84962e-20)
(-0.00991192 0.019087 -7.72234e-21)
(-0.0114122 0.0193717 9.39107e-21)
(-0.0107682 0.017237 3.69503e-22)
(-0.00770278 0.0135533 -2.92832e-20)
(-0.00206245 0.00915597 -1.79677e-21)
(0.00604953 0.00487273 -1.53207e-20)
(0.0163437 0.00149807 -2.00866e-20)
(0.0299604 0.000457473 1.18747e-20)
(-0.00307572 0.00772703 -5.20904e-21)
(-0.00712265 0.0162394 2.75445e-21)
(-0.00955559 0.0199006 7.17983e-21)
(-0.00963817 0.0199461 -6.80613e-21)
(-0.00703306 0.0173992 -2.44896e-20)
(-0.0015317 0.0132063 8.64992e-21)
(0.006967 0.00828173 1.2493e-21)
(0.0182977 0.00354198 2.30987e-20)
(0.0321237 -8.18277e-05 3.08018e-20)
(0.0499169 -0.000763667 -1.40196e-20)
(-0.00344425 0.00800549 8.41057e-21)
(-0.00741717 0.0166201 8.41556e-21)
(-0.00887854 0.0201463 -1.2242e-21)
(-0.00730813 0.0198692 3.37182e-20)
(-0.00246016 0.0168806 1.49064e-20)
(0.00579909 0.0121886 1.15388e-20)
(0.0175135 0.00677107 1.67227e-20)
(0.0324534 0.00162104 -7.46834e-21)
(0.0502238 -0.00219346 -1.0293e-20)
(0.0727063 -0.00233787 -1.71503e-20)
(-0.00376119 0.00810482 -6.26144e-22)
(-0.00750892 0.0165655 -1.33856e-20)
(-0.00778801 0.0198015 -1.00873e-20)
(-0.0043075 0.0191207 -1.67565e-20)
(0.00308025 0.0156691 -1.36563e-20)
(0.0144278 0.0105006 1.43987e-20)
(0.029717 0.00463973 -1.40992e-20)
(0.0486513 -0.000863274 -9.91617e-21)
(0.0707696 -0.00481377 1.34943e-21)
(0.0984418 -0.00424039 4.43554e-21)
(-0.00400044 0.00801966 -2.37403e-20)
(-0.00732981 0.0160646 1.23462e-20)
(-0.00618368 0.0188553 9.34462e-21)
(-0.000511644 0.017696 6.63258e-21)
(0.00973015 0.0137723 -1.23996e-20)
(0.0245068 0.00816779 -1.06733e-20)
(0.0437323 0.00193354 1.59338e-20)
(0.0670397 -0.00384853 -1.33215e-20)
(0.0938962 -0.00787961 -9.45235e-22)
(0.127244 -0.00641591 -1.43285e-20)
(-0.00413427 0.0077475 2.02552e-20)
(-0.00680757 0.0151136 8.99586e-21)
(-0.00395901 0.0173087 4.74066e-22)
(0.00421247 0.0156064 -1.20906e-20)
(0.0176419 0.0112179 7.43199e-22)
(0.0362006 0.00524012 1.43559e-20)
(0.0597274 -0.00126971 -4.14601e-21)
(0.0877798 -0.00723132 -5.15914e-21)
(0.119747 -0.0112817 -1.16594e-20)
(0.159233 -0.00877255 2.15433e-20)
(-0.00413382 0.00728848 1.42377e-20)
(-0.00586669 0.0137165 -2.45752e-20)
(-0.00100267 0.0151752 -1.97309e-20)
(0.0100039 0.012879 8.94686e-21)
(0.0269753 0.00805218 1.86518e-20)
(0.0496832 0.00179138 1.63488e-20)
(0.0778815 -0.00486073 -1.76253e-20)
(0.111043 -0.0108644 3.46331e-20)
(0.148473 -0.0148548 -1.07473e-20)
(0.194515 -0.0111707 -2.57049e-20)
(-0.00396901 0.00664525 -2.0966e-20)
(-0.00442957 0.0118854 1.37873e-20)
(0.00279926 0.0124797 -7.07919e-21)
(0.0170045 0.00955569 8.39577e-22)
(0.0378937 0.00433912 8.12266e-21)
(0.065133 -0.00208423 -2.56955e-20)
(0.0983804 -0.00870262 2.31179e-20)
(0.137009 -0.0145579 -2.31641e-20)
(0.18023 -0.0183684 3.73087e-20)
(0.233182 -0.0134121 1.34353e-20)
(-0.00360902 0.00582337 4.74552e-21)
(-0.00241781 0.0096402 2.74098e-20)
(0.00756056 0.00925922 -7.40991e-21)
(0.0253549 0.00569213 7.52324e-21)
(0.0505579 0.000157016 9.17867e-21)
(0.0827269 -0.00627745 -2.93632e-21)
(0.121411 -0.012639 2.03118e-20)
(0.165866 -0.0180867 1.22243e-21)
(0.215194 -0.0215258 -2.36261e-20)
(0.27531 -0.0152325 3.2521e-20)
(-0.00302283 0.00483153 -1.23784e-20)
(0.000245969 0.00700941 -2.63006e-20)
(0.0133916 0.00556246 2.36034e-20)
(0.0351891 0.00135702 1.24148e-20)
(0.0651192 -0.00440447 -5.8219e-20)
(0.10263 -0.0106713 4.88984e-20)
(0.147149 -0.0165075 -4.46595e-20)
(0.197796 -0.0212075 9.10939e-22)
(0.253548 -0.0239547 -1.01814e-20)
(0.320957 -0.0162379 -3.0043e-20)
(-0.00217996 0.00368194 1.11454e-20)
(0.00363597 0.00403054 -1.84509e-21)
(0.0203953 0.00145019 -5.79314e-21)
(0.0466286 -0.00336872 -5.93021e-22)
(0.0817105 -0.0092475 -4.05553e-21)
(0.124984 -0.01515 -1.53441e-20)
(0.175751 -0.0201602 6.41996e-21)
(0.232971 -0.0236827 -1.08571e-20)
(0.295459 -0.0251432 3.50282e-21)
(0.370008 -0.0156319 1.74027e-21)
(-0.00105134 0.00239081 -2.28797e-20)
(0.00782088 0.000750787 -2.01866e-21)
(0.0286634 -0.00300404 2.90999e-21)
(0.0597754 -0.0083918 1.32776e-21)
(0.100435 -0.0142683 1.93501e-20)
(0.149894 -0.0196108 -5.8377e-20)
(0.20734 -0.0234993 3.97375e-20)
(0.271598 -0.025344 -3.05347e-20)
(0.341214 -0.0244376 2.5408e-20)
(0.42201 -0.0120755 2.69671e-20)
(0.000389689 0.000978688 -2.92888e-21)
(0.0128615 -0.00277224 1.37182e-20)
(0.0382719 -0.00771284 -1.77048e-20)
(0.0747047 -0.0136048 -5.70046e-21)
(0.121351 -0.0193562 1.14291e-20)
(0.177393 -0.0239703 5.59378e-20)
(0.241963 -0.0265204 -1.12628e-20)
(0.31395 -0.0262567 5.52766e-21)
(0.391895 -0.0217027 -3.03275e-20)
(0.478264 -0.00578102 1.47967e-20)
(0.00216653 -0.000529273 -8.7266e-21)
(0.0188086 -0.00646994 -7.26783e-21)
(0.0492782 -0.0125734 2.00945e-21)
(0.0914596 -0.0188821 7.28246e-21)
(0.144462 -0.0243841 -2.24007e-20)
(0.207411 -0.0281476 -9.24162e-21)
(0.27944 -0.0292988 -2.98274e-20)
(0.359835 -0.0269056 3.06026e-20)
(0.448654 -0.0187012 3.34787e-20)
(0.548748 -0.00268111 -1.23733e-20)
(0.00429867 -0.00210342 -4.35856e-21)
(0.025702 -0.0102627 1.82317e-20)
(0.0617197 -0.0174661 -2.0664e-20)
(0.11005 -0.0240748 -2.58744e-21)
(0.169712 -0.0291909 -1.05357e-20)
(0.239755 -0.0320055 2.31175e-20)
(0.319272 -0.0318219 3.01169e-20)
(0.407732 -0.0279185 -2.96118e-20)
(0.505868 -0.0188866 3.31439e-20)
(0.613387 -0.00966943 5.43332e-21)
(0.00680143 -0.00371004 -1.25381e-20)
(0.0335697 -0.0140604 -3.69197e-20)
(0.0756145 -0.0222551 3.72831e-20)
(0.130457 -0.0290087 5.48843e-21)
(0.197007 -0.0335709 8.036e-21)
(0.274189 -0.0353053 5.396e-21)
(0.36095 -0.0337755 2.34137e-20)
(0.456592 -0.02865 1.74387e-20)
(0.561543 -0.0194294 -6.39284e-20)
(0.672173 -0.0145632 -3.27524e-20)
(0.00968598 -0.00531214 -4.2477e-20)
(0.0424286 -0.0177647 9.08903e-21)
(0.0909631 -0.0267907 -2.13832e-20)
(0.152641 -0.0334896 4.12211e-21)
(0.226234 -0.0372856 6.89956e-21)
(0.310488 -0.0377465 -5.09572e-20)
(0.404096 -0.0347208 2.33601e-20)
(0.505951 -0.0282575 -1.5796e-20)
(0.615713 -0.0184313 1.70974e-20)
(0.727599 -0.015067 -6.80894e-21)
(0.0129595 -0.0068704 1.55714e-20)
(0.0522838 -0.0212708 1.80208e-20)
(0.107749 -0.0309145 -1.18273e-21)
(0.176541 -0.0373122 -5.96345e-21)
(0.257267 -0.0400847 7.0066e-23)
(0.348442 -0.0390227 2.23843e-22)
(0.448426 -0.0342573 -3.53193e-20)
(0.555594 -0.0261674 4.91478e-21)
(0.66874 -0.0151977 4.70511e-20)
(0.781002 -0.0115495 2.24184e-20)
(0.0166251 -0.008344 -1.05468e-20)
(0.0631292 -0.0244706 -8.21034e-21)
(0.125936 -0.0344642 3.65223e-20)
(0.202076 -0.0402696 8.90661e-22)
(0.289962 -0.0417231 -1.63318e-20)
(0.387837 -0.0388515 4.44762e-20)
(0.493682 -0.0320611 1.01039e-20)
(0.605325 -0.0220185 7.89805e-22)
(0.720745 -0.00943688 -2.04334e-20)
(0.832659 -0.00436021 -2.85545e-20)
(0.0206821 -0.00969139 2.21715e-20)
(0.0749464 -0.0272547 -6.5603e-21)
(0.145473 -0.037278 -3.91593e-21)
(0.229142 -0.0421606 -1.58431e-20)
(0.324151 -0.041972 2.62275e-20)
(0.428442 -0.0369878 -1.32074e-20)
(0.539593 -0.0278859 -1.53669e-20)
(0.654897 -0.0155946 -3.5736e-21)
(0.771626 -0.00105289 -1.20623e-20)
(0.882458 0.00613835 1.39708e-20)
(0.0251256 -0.0108708 -8.22993e-21)
(0.0877044 -0.0295145 -5.16138e-20)
(0.166286 -0.0391989 5.54041e-21)
(0.257609 -0.042796 1.94818e-20)
(0.359639 -0.0406269 1.45138e-20)
(0.469999 -0.0332305 -4.93265e-20)
(0.585857 -0.0215595 3.27162e-20)
(0.704013 -0.00679385 -1.52795e-20)
(0.821146 0.00990972 2.41844e-20)
(0.930139 0.0195388 6.90337e-21)
(0.0299461 -0.0118406 -8.92731e-21)
(0.101359 -0.0311442 1.84187e-20)
(0.188281 -0.0400777 2.45767e-20)
(0.287321 -0.042003 -1.81436e-20)
(0.396203 -0.0375124 6.84958e-21)
(0.512219 -0.0274253 -4.35335e-20)
(0.63214 -0.0129778 -8.28698e-21)
(0.752328 0.00439646 7.34087e-21)
(0.868994 0.0233163 -1.85072e-20)
(0.975378 0.0354297 -1.98748e-20)
(0.035129 -0.0125599 -1.13953e-20)
(0.115851 -0.0320419 -3.8525e-21)
(0.211341 -0.0397758 -4.43468e-20)
(0.318095 -0.0396287 -7.08675e-21)
(0.433587 -0.0324852 -6.76608e-22)
(0.554781 -0.0194641 2.68899e-21)
(0.678078 -0.00209786 4.52766e-21)
(0.799466 0.0179203 -2.34262e-20)
(0.914822 0.0389765 4.43512e-22)
(1.01785 0.0534127 1.39141e-20)
(0.0406545 -0.0129885 -2.87819e-21)
(0.131106 -0.0321115 1.51457e-20)
(0.235328 -0.0381678 2.17234e-20)
(0.349721 -0.035543 1.40113e-20)
(0.47151 -0.025436 -4.26811e-21)
(0.597343 -0.00928445 -3.67291e-21)
(0.723287 0.0110695 3.78353e-20)
(0.845041 0.033668 5.48534e-21)
(0.958278 0.0566647 1.86248e-20)
(1.05724 0.0731078 -8.29926e-21)
(0.0464966 -0.0130879 2.82929e-20)
(0.147036 -0.0312637 1.94408e-20)
(0.260081 -0.0351434 -2.03954e-20)
(0.381963 -0.0296407 -4.15422e-21)
(0.509665 -0.0162905 2.22634e-21)
(0.63954 0.00313218 -8.64316e-21)
(0.767375 0.0264656 -1.95484e-20)
(0.888668 0.0514878 -3.25328e-21)
(0.999027 0.0761326 1.71675e-22)
(1.0933 0.094157 9.11048e-21)
(0.052623 -0.0128212 3.23194e-21)
(0.163537 -0.0294179 -1.05907e-20)
(0.285421 -0.0306093 2.59117e-20)
(0.414565 -0.0218431 1.73901e-20)
(0.547726 -0.00500989 4.9888e-22)
(0.680998 0.0177628 1.33984e-20)
(0.80995 0.0439896 2.02666e-21)
(0.92998 0.0711942 -1.55867e-20)
(1.03677 0.0971183 1.38358e-20)
(1.12583 0.116227 1.45853e-22)
(0.0589949 -0.0121545 -2.29849e-20)
(0.180488 -0.0265037 -7.18836e-21)
(0.311145 -0.0244916 -6.79198e-21)
(0.44725 -0.0120997 -1.21116e-20)
(0.585355 0.00840893 2.93379e-21)
(0.72134 0.0345448 8.10531e-23)
(0.850633 0.0635038 1.09041e-20)
(0.968641 0.092576 -1.84053e-21)
(1.07125 0.119354 -1.42889e-20)
(1.15469 0.139009 -1.37089e-20)
(0.0655669 -0.0110571 1.82769e-21)
(0.197755 -0.0224622 1.14324e-20)
(0.337037 -0.0167371 5.64357e-21)
(0.479725 -0.000389376 -1.85741e-20)
(0.622203 0.0239338 -1.02006e-21)
(0.760193 0.0533791 -8.90222e-21)
(0.889068 0.0848386 2.44396e-22)
(1.00435 0.115403 4.6394e-21)
(1.10227 0.14257 -5.41866e-21)
(1.17979 0.162223 1.5519e-20)
(0.0722872 -0.00950273 4.21153e-21)
(0.215191 -0.0172484 -1.09781e-20)
(0.362863 -0.00731521 -2.69011e-20)
(0.511688 0.013279 2.59191e-20)
(0.657924 0.0414982 -2.06057e-21)
(0.7972 0.0741327 6.41531e-21)
(0.924926 0.107798 -9.74064e-22)
(1.03686 0.139431 6.9154e-21)
(1.12967 0.166503 -5.32252e-22)
(1.20111 0.185613 -1.20003e-20)
(0.079098 -0.00747015 -8.3863e-21)
(0.232638 -0.0108323 1.40714e-20)
(0.388382 0.0037804 1.21725e-20)
(0.542834 0.0288657 -1.83137e-20)
(0.692176 0.0610021 -3.19657e-21)
(0.83202 0.0966418 1.30358e-21)
(0.957913 0.132163 1.40154e-20)
(1.06595 0.164408 7.70373e-22)
(1.15336 0.190897 3.00546e-21)
(1.21868 0.208952 -6.69746e-21)
(0.0859362 -0.00494412 6.33665e-21)
(0.249925 -0.00320085 -6.07826e-21)
(0.41334 0.0165309 -5.26683e-21)
(0.572852 0.0463004 9.63651e-21)
(0.724627 0.082314 3.57212e-21)
(0.864341 0.120716 2.89e-21)
(0.987776 0.157699 -1.42592e-20)
(1.09147 0.190079 -5.1826e-21)
(1.17329 0.215505 -4.82398e-21)
(1.23256 0.232036 2.20857e-21)
(0.0927338 -0.00191615 -3.02789e-21)
(0.266878 0.00564129 -6.45182e-23)
(0.437484 0.0308913 9.94919e-21)
(0.601442 0.0654825 -3.8896e-21)
(0.754964 0.105273 -1.80552e-21)
(0.893879 0.146141 -1.27919e-21)
(1.0143 0.184158 3.45859e-21)
(1.11332 0.216189 6.30728e-21)
(1.18946 0.240096 -2.00418e-22)
(1.24286 0.254684 2.43608e-21)
(0.0994195 0.00161481 2.11007e-21)
(0.283316 0.0156702 -6.40343e-22)
(0.46056 0.0467902 -1.75556e-21)
(0.62831 0.0862821 -1.68484e-21)
(0.782897 0.129691 1.64575e-21)
(0.920389 0.172683 1.38725e-21)
(1.03733 0.211284 -1.3559e-21)
(1.13141 0.242488 5.27729e-22)
(1.20192 0.264452 7.6464e-22)
(1.2497 0.276734 -1.03299e-21)
(0.105919 0.00564175 1.08196e-21)
(0.299058 0.0268423 3.44992e-22)
(0.482318 0.06413 -2.08902e-21)
(0.653179 0.108541 -1.79708e-21)
(0.808162 0.155355 2.02605e-21)
(0.94366 0.200094 4.23152e-22)
(1.05673 0.238817 -1.09289e-21)
(1.14574 0.268732 1.07427e-21)
(1.21074 0.288369 6.21664e-22)
(1.25325 0.298046 -7.18044e-22)
(0.112157 0.0101492 -4.41469e-22)
(0.313922 0.039094 9.05483e-22)
(0.502518 0.0827871 6.29351e-21)
(0.675792 0.132077 -3.01034e-21)
(0.830526 0.182034 -1.65716e-21)
(0.963522 0.228113 -2.01963e-21)
(1.07242 0.266494 4.38957e-21)
(1.15632 0.294686 3.09353e-21)
(1.21602 0.311659 2.56006e-21)
(1.25366 0.318492 1.40175e-21)
(0.118058 0.0151132 8.19569e-21)
(0.327733 0.0523418 -4.82397e-21)
(0.520933 0.102614 -5.99745e-21)
(0.695914 0.156681 8.70901e-21)
(0.84979 0.209477 4.99978e-21)
(0.979846 0.25647 -3.71169e-22)
(1.08437 0.294057 -7.27844e-21)
(1.16321 0.320125 -5.56735e-21)
(1.2179 0.334147 -5.93135e-21)
(1.25112 0.33796 3.50763e-21)
(0.123548 0.0205007 -1.094e-20)
(0.340324 0.0664828 1.09591e-20)
(0.537354 0.123439 1.33077e-20)
(0.71334 0.182127 -1.44014e-20)
(0.865791 0.237421 -5.54161e-21)
(0.992542 0.284894 3.87115e-21)
(1.09257 0.321252 7.6461e-21)
(1.16648 0.344838 1.24091e-21)
(1.21651 0.355674 -1.699e-22)
(1.24581 0.35635 -4.6429e-21)
(0.128555 0.0262703 -1.46273e-21)
(0.351538 0.0813958 -1.50286e-20)
(0.551592 0.145071 -1.7216e-20)
(0.727893 0.20817 2.12574e-20)
(0.878404 0.265592 -2.59126e-21)
(1.00156 0.313112 5.3049e-21)
(1.09706 0.347832 1.13791e-21)
(1.16625 0.368622 -3.38095e-21)
(1.21204 0.376092 1.88944e-21)
(1.23793 0.373569 -1.09897e-22)
(0.133013 0.0323723 2.96465e-21)
(0.361231 0.0969428 8.99246e-21)
(0.563482 0.167301 5.63016e-21)
(0.739431 0.234551 -4.74459e-21)
(0.887543 0.29371 -7.96305e-21)
(1.00689 0.340853 -8.45587e-21)
(1.0979 0.373561 -1.83006e-21)
(1.16264 0.391289 4.92731e-21)
(1.20464 0.395263 -1.08553e-21)
(1.22765 0.389536 2.50827e-21)
(0.136858 0.0387493 -1.05084e-20)
(0.369278 0.11297 -1.08783e-20)
(0.572887 0.189904 -1.75864e-21)
(0.747847 0.261002 -2.19161e-21)
(0.893158 0.321496 -5.69859e-21)
(1.00855 0.367851 3.98577e-21)
(1.09518 0.398212 -7.96392e-22)
(1.15582 0.412665 -4.41534e-21)
(1.1945 0.41306 4.05855e-21)
(1.21517 0.404176 -5.33581e-21)
(0.140037 0.0453368 2.99624e-21)
(0.375572 0.129312 9.13516e-21)
(0.579698 0.212643 8.47635e-21)
(0.753067 0.287247 1.02018e-20)
(0.895239 0.348667 4.04895e-22)
(1.00661 0.393851 1.08026e-20)
(1.08904 0.421574 6.17591e-22)
(1.14592 0.432585 -1.40207e-20)
(1.18178 0.429362 1.00685e-20)
(1.20062 0.417414 3.81319e-21)
(0.142501 0.0520641 6.54918e-21)
(0.380024 0.145791 1.52585e-20)
(0.583838 0.235272 -2.37095e-21)
(0.755058 0.313008 -1.24543e-20)
(0.893813 0.374948 6.40137e-21)
(1.00116 0.418607 -7.39775e-21)
(1.0796 0.443447 -1.01385e-20)
(1.13314 0.450906 -4.24556e-22)
(1.16667 0.444074 -7.73214e-21)
(1.18409 0.429132 2.7819e-21)
(0.144212 0.0588555 2.62083e-21)
(0.382573 0.162222 1.52825e-21)
(0.58526 0.257541 1.99601e-20)
(0.753821 0.338009 4.37874e-21)
(0.888943 0.400072 -3.99331e-21)
(0.992308 0.441886 -2.46858e-21)
(1.06704 0.463647 1.45823e-20)
(1.11765 0.467501 1.22443e-20)
(1.14935 0.457164 6.03392e-21)
(1.16588 0.439208 -5.9894e-22)
(0.14514 0.0656312 4.32106e-22)
(0.383177 0.178413 -1.50275e-20)
(0.583951 0.279197 -2.27779e-20)
(0.749392 0.361976 7.12035e-22)
(0.880724 0.42378 6.11566e-21)
(0.980215 0.46347 -8.38889e-21)
(1.05154 0.482003 -2.00838e-20)
(1.09966 0.482227 -6.04781e-21)
(1.13001 0.468508 -3.06177e-22)
(1.14622 0.447736 1.31499e-21)
(0.145267 0.0723088 -4.15948e-21)
(0.38182 0.194173 1.07833e-20)
(0.579931 0.29999 1.30072e-20)
(0.741844 0.384646 -1.32222e-20)
(0.869286 0.445829 2.30792e-21)
(0.965052 0.483155 1.85614e-20)
(1.03329 0.498364 -3.12752e-21)
(1.07933 0.494989 3.34304e-21)
(1.10878 0.477993 -7.02437e-22)
(1.1252 0.454621 -5.63359e-22)
(0.144584 0.0788041 -8.05828e-21)
(0.378512 0.209307 -1.73853e-20)
(0.57325 0.319675 -3.94332e-21)
(0.731283 0.405765 7.22327e-21)
(0.854787 0.465988 7.45536e-21)
(0.947012 0.500758 -1.73163e-20)
(1.0125 0.512595 9.41715e-21)
(1.05686 0.505695 -3.18741e-21)
(1.08584 0.485561 1.40049e-21)
(1.10291 0.459769 6.21858e-22)
(0.143094 0.0850335 6.23745e-21)
(0.373286 0.223625 1.1796e-21)
(0.563991 0.338012 -1.39094e-21)
(0.717848 0.425091 -7.54324e-21)
(0.837412 0.484046 4.42114e-21)
(0.926314 0.516112 2.32448e-21)
(0.989392 0.52458 -3.12174e-21)
(1.03247 0.514268 2.11618e-21)
(1.06135 0.491158 8.83446e-22)
(1.07948 0.463111 -2.80026e-21)
(0.14081 0.0909147 -1.05279e-21)
(0.366197 0.236943 -8.27203e-22)
(0.552267 0.354776 5.58082e-21)
(0.701703 0.4424 3.35659e-21)
(0.817371 0.49981 -5.97226e-21)
(0.903196 0.52907 5.63409e-21)
(0.964206 0.534218 1.46404e-21)
(1.00634 0.520648 2.68165e-21)
(1.03546 0.494741 6.29642e-21)
(1.05501 0.46458 1.13782e-21)
(0.137752 0.0963649 5.55572e-21)
(0.357328 0.249086 5.85293e-21)
(0.538216 0.369752 -1.93451e-21)
(0.683042 0.457483 -6.40701e-22)
(0.794903 0.513106 -2.00824e-21)
(0.877912 0.539505 -1.13979e-21)
(0.937191 0.541431 2.59462e-21)
(0.978699 0.524793 7.1349e-23)
(1.00828 0.496282 -5.57522e-21)
(1.0296 0.464102 -7.11932e-21)
(0.133955 0.101302 -2.14487e-21)
(0.346784 0.259885 -7.37255e-22)
(0.522004 0.382747 -3.08043e-21)
(0.662083 0.470155 1.04756e-21)
(0.770259 0.52378 -2.84256e-21)
(0.850732 0.547308 6.33708e-21)
(0.908612 0.546154 -7.09288e-22)
(0.94976 0.526684 1.13547e-21)
(0.979935 0.49577 -5.41075e-21)
(1.0033 0.461594 8.47846e-21)
(0.129466 0.105656 -2.12927e-21)
(0.334683 0.269183 3.16981e-22)
(0.503817 0.393579 -1.51047e-21)
(0.639065 0.480247 -2.31409e-21)
(0.743709 0.531697 -1.89933e-21)
(0.82194 0.552388 -1.73175e-22)
(0.878749 0.548343 3.22585e-21)
(0.919762 0.526318 -1.47816e-20)
(0.950534 0.49321 3.18101e-20)
(0.976124 0.456929 1.29867e-20)
(0.124338 0.10936 3.81361e-22)
(0.321166 0.276842 -8.51128e-21)
(0.483864 0.40209 6.51175e-21)
(0.614243 0.487615 -1.38388e-21)
(0.715536 0.536746 3.25324e-21)
(0.79183 0.554672 -5.65792e-21)
(0.847898 0.547969 -1.10068e-20)
(0.888975 0.523725 5.80015e-21)
(0.920239 0.488658 -2.58425e-21)
(0.948036 0.449994 -6.3326e-21)
(0.118628 0.112352 -2.01118e-21)
(0.306387 0.282739 2.23012e-21)
(0.462369 0.408141 -4.34807e-21)
(0.587886 0.492137 4.47991e-21)
(0.68603 0.538835 8.60295e-21)
(0.7607 0.5541 5.5646e-21)
(0.816369 0.545011 1.90837e-20)
(0.85774 0.518958 -1.38847e-20)
(0.889469 0.482335 -2.76518e-20)
(0.918785 0.441194 1.13888e-20)
(0.112406 0.114578 -4.7524e-21)
(0.290518 0.286766 -4.44932e-21)
(0.439572 0.411618 1.58792e-21)
(0.560272 0.493715 1.38101e-20)
(0.655485 0.537892 -1.59993e-20)
(0.728844 0.550622 -2.19399e-20)
(0.784464 0.539426 -7.0723e-21)
(0.826496 0.511989 -9.66196e-22)
(0.859154 0.474515 3.48802e-20)
(0.887994 0.430959 -9.15237e-21)
(0.105744 0.115992 1.41194e-20)
(0.273741 0.288837 -5.1835e-22)
(0.415723 0.412431 -2.63713e-21)
(0.531686 0.492277 -1.15047e-22)
(0.62419 0.533868 -8.0986e-21)
(0.696535 0.544205 3.9627e-20)
(0.752443 0.531156 -2.73805e-20)
(0.795648 0.502573 3.43632e-20)
(0.830276 0.464712 -2.55689e-20)
(0.861213 0.421232 -3.45253e-20)
(0.098723 0.116556 -6.64717e-21)
(0.256246 0.288883 3.05934e-21)
(0.391079 0.410516 -1.23506e-21)
(0.502417 0.487779 1.32672e-20)
(0.592435 0.526745 -4.45516e-21)
(0.664029 0.534851 7.06568e-21)
(0.720487 0.520215 1.64014e-20)
(0.765131 0.490739 -8.98885e-21)
(0.801798 0.452651 -2.32475e-20)
(0.834476 0.409671 3.4063e-20)
(0.0914269 0.116241 1.33813e-20)
(0.238233 0.286859 1.88939e-20)
(0.365904 0.405835 -1.57936e-20)
(0.472757 0.480206 -1.38692e-20)
(0.560506 0.516532 4.10591e-20)
(0.631584 0.52259 -4.22838e-20)
(0.6888 0.50666 5.20084e-20)
(0.735042 0.476616 -1.40809e-20)
(0.773749 0.438607 1.57817e-20)
(0.808149 0.396468 2.96579e-20)
(0.0839435 0.11503 -6.28473e-21)
(0.219905 0.282738 -1.69449e-20)
(0.340468 0.398376 -6.9055e-21)
(0.443 0.469568 -4.56808e-21)
(0.528692 0.503261 3.55195e-21)
(0.599463 0.507473 -1.01853e-20)
(0.657608 0.490559 -1.56613e-20)
(0.705566 0.460302 -3.49415e-20)
(0.74635 0.42274 3.62129e-20)
(0.78257 0.381765 -1.25514e-20)
(0.0763624 0.112913 2.32241e-20)
(0.201469 0.276516 -1.53164e-21)
(0.315039 0.388153 -9.08715e-21)
(0.413436 0.455901 1.33801e-20)
(0.497278 0.486988 -2.45277e-20)
(0.567926 0.48957 6.60587e-20)
(0.627138 0.471985 -3.68118e-20)
(0.676899 0.441866 3.54128e-20)
(0.71979 0.405107 -6.88089e-20)
(0.757905 0.365578 -1.90515e-20)
(0.0687747 0.109892 -9.6318e-21)
(0.183131 0.268211 2.487e-20)
(0.289884 0.375206 6.58402e-21)
(0.384353 0.439267 -1.14917e-20)
(0.466543 0.46779 -2.06095e-20)
(0.537227 0.468964 -1.2488e-21)
(0.597614 0.451022 1.23142e-20)
(0.649234 0.421382 -3.14076e-20)
(0.694243 0.38575 1.67746e-20)
(0.734297 0.347915 2.20183e-21)
(0.0612712 0.105977 -3.67608e-20)
(0.165096 0.25786 -9.93408e-21)
(0.265265 0.3596 -2.51527e-21)
(0.356031 0.419751 2.91631e-20)
(0.436758 0.445766 -2.79071e-20)
(0.507613 0.445756 -7.88889e-21)
(0.569253 0.427761 -4.8973e-21)
(0.622757 0.398925 9.77432e-21)
(0.669871 0.364722 -1.28681e-20)
(0.711877 0.3288 -2.1284e-20)
(0.0539414 0.10119 3.03702e-20)
(0.147565 0.245522 -1.74484e-20)
(0.241438 0.341423 1.10702e-21)
(0.32874 0.397463 -4.38968e-20)
(0.408183 0.421032 4.92869e-20)
(0.479319 0.420061 -1.64418e-20)
(0.542257 0.402309 1.03992e-20)
(0.59764 0.374584 9.60449e-21)
(0.646822 0.342086 2.9427e-20)
(0.690764 0.308276 -1.24119e-20)
(0.0468725 0.0955614 -1.23176e-20)
(0.130732 0.231275 3.62854e-20)
(0.218646 0.320787 2.03988e-20)
(0.30274 0.372533 3.35793e-20)
(0.381064 0.393727 -8.31621e-21)
(0.452566 0.392011 3.37497e-21)
(0.516817 0.374782 2.94236e-20)
(0.574045 0.348456 6.85729e-21)
(0.625229 0.317918 6.66544e-22)
(0.671061 0.286401 -1.48482e-20)
(0.0401484 0.0891293 -2.61936e-20)
(0.114781 0.215215 -2.08761e-21)
(0.197124 0.297826 -1.15756e-20)
(0.278273 0.345115 -5.32208e-20)
(0.355632 0.364005 -5.38943e-20)
(0.42756 0.361753 9.50175e-21)
(0.493112 0.345311 -2.48157e-20)
(0.55212 0.320651 1.67803e-20)
(0.605215 0.292306 9.71938e-21)
(0.65286 0.26325 2.14284e-20)
(0.0338486 0.0819421 3.69564e-20)
(0.0998873 0.197457 -3.20764e-20)
(0.177089 0.272693 -1.63349e-20)
(0.255567 0.31538 3.07448e-20)
(0.332104 0.33204 3.63463e-20)
(0.404492 0.329449 -1.26138e-20)
(0.471304 0.31404 -1.63256e-21)
(0.531999 0.291292 -5.20179e-20)
(0.586888 0.26535 -3.11448e-20)
(0.636245 0.238911 1.261e-20)
(0.0280475 0.0740557 -2.09503e-20)
(0.0862133 0.178132 9.41304e-21)
(0.158743 0.245563 3.48525e-20)
(0.234832 0.283519 -1.59157e-20)
(0.310675 0.298021 1.2246e-21)
(0.383537 0.295274 5.09168e-20)
(0.45154 0.281123 2.53133e-21)
(0.513804 0.26051 4.96249e-20)
(0.570348 0.237163 2.20152e-20)
(0.621289 0.213482 -3.68635e-20)
(0.0228134 0.0655336 2.79557e-20)
(0.0739073 0.157387 3.23337e-21)
(0.142271 0.216627 2.24227e-21)
(0.216258 0.249741 3.26775e-20)
(0.291525 0.262154 -4.64581e-21)
(0.364852 0.259417 -3.18334e-20)
(0.433952 0.246727 1.66643e-20)
(0.497644 0.228448 -2.79636e-20)
(0.555682 0.207865 -1.23867e-20)
(0.608057 0.18707 1.34032e-20)
(0.0182076 0.0564461 -1.74623e-20)
(0.0631024 0.135382 -3.5227e-20)
(0.127837 0.186092 8.29532e-21)
(0.200015 0.214269 -1.70885e-20)
(0.274811 0.224655 -1.10034e-20)
(0.348574 0.222078 2.81982e-20)
(0.418658 0.211028 -7.17355e-21)
(0.483613 0.195259 7.17857e-21)
(0.542967 0.177588 -9.27552e-21)
(0.596608 0.159793 1.92215e-20)
(0.0142841 0.0468694 6.18511e-21)
(0.0539151 0.112289 2.35617e-20)
(0.115583 0.15418 -3.36507e-20)
(0.186249 0.17734 1.67226e-20)
(0.260669 0.185756 -8.04443e-21)
(0.334823 0.183466 -2.41076e-20)
(0.405758 0.174211 2.09062e-20)
(0.471794 0.161101 4.77072e-21)
(0.532268 0.146469 -6.81681e-22)
(0.58699 0.131772 -2.24811e-20)
(0.0110889 0.0368852 1.96588e-21)
(0.0464442 0.0882908 7.43844e-21)
(0.105632 0.121123 3.02775e-20)
(0.175085 0.139203 -6.08459e-21)
(0.249216 0.145697 -5.08089e-21)
(0.323701 0.143802 1.99687e-21)
(0.395335 0.136469 8.75225e-22)
(0.462256 0.126143 8.27808e-21)
(0.523643 0.114653 -1.1544e-20)
(0.579245 0.103136 -7.74985e-21)
(0.00865925 0.0265793 -4.99521e-21)
(0.0407699 0.0635801 -9.1054e-21)
(0.098082 0.0871665 -2.34355e-20)
(0.166624 0.100115 1.2372e-20)
(0.240545 0.104726 1.06933e-20)
(0.315288 0.103311 4.59058e-22)
(0.387459 0.0980006 -2.03678e-20)
(0.455053 0.090555 -9.63189e-21)
(0.517134 0.0822898 8.09571e-21)
(0.573407 0.074016 9.17317e-21)
(0.00702358 0.0160412 8.67722e-22)
(0.0369529 0.0383552 -1.88479e-21)
(0.0930069 0.052561 4.44709e-21)
(0.16094 0.0603444 -3.16445e-21)
(0.234724 0.0630992 -2.94445e-21)
(0.309646 0.0622255 -2.11577e-21)
(0.38218 0.0590102 4.17467e-21)
(0.450229 0.0545149 1.69001e-20)
(0.512776 0.0495323 2.58909e-21)
(0.5695 0.0445492 -4.89444e-21)
(0.00620094 0.00536271 1.06548e-21)
(0.0350342 0.0128197 -3.11969e-21)
(0.0904568 0.017564 -3.66933e-21)
(0.158086 0.0201608 -2.67535e-21)
(0.231802 0.0210771 2.70813e-21)
(0.306814 0.0207817 1.29904e-21)
(0.379532 0.0197051 -1.37486e-21)
(0.447809 0.018202 -6.68594e-21)
(0.510592 0.0165372 2.32942e-21)
(0.567543 0.014873 -2.31379e-21)
(0.00620094 -0.00536271 -1.06548e-21)
(0.0350342 -0.0128197 3.11969e-21)
(0.0904568 -0.017564 3.66933e-21)
(0.158086 -0.0201608 -3.69586e-21)
(0.231802 -0.0210771 3.44592e-21)
(0.306814 -0.0207818 1.84004e-21)
(0.379532 -0.0197051 -3.13364e-21)
(0.447809 -0.018202 -3.86979e-21)
(0.510592 -0.0165372 6.11876e-22)
(0.567543 -0.014873 -1.81137e-21)
(0.00702358 -0.0160412 1.15902e-21)
(0.0369529 -0.0383552 -3.72176e-21)
(0.0930069 -0.0525611 8.67064e-21)
(0.16094 -0.0603444 -8.00109e-21)
(0.234724 -0.0630992 -3.8896e-22)
(0.309646 -0.0622255 -5.99432e-21)
(0.38218 -0.0590102 1.03853e-20)
(0.450229 -0.0545149 1.50439e-20)
(0.512776 -0.0495323 2.86545e-21)
(0.5695 -0.0445492 -6.49579e-21)
(0.00865925 -0.0265793 -1.01062e-21)
(0.0407699 -0.0635801 -7.92019e-21)
(0.098082 -0.0871665 -1.906e-20)
(0.166624 -0.100115 1.73361e-20)
(0.240545 -0.104726 3.82315e-21)
(0.315288 -0.103311 3.58918e-21)
(0.387459 -0.0980006 -1.86726e-20)
(0.455053 -0.090555 -1.16769e-20)
(0.517134 -0.0822898 -2.77569e-21)
(0.573407 -0.074016 2.0074e-20)
(0.0110889 -0.0368852 -3.60728e-21)
(0.0464442 -0.0882908 4.77978e-21)
(0.105632 -0.121123 3.47756e-20)
(0.175085 -0.139203 -3.24506e-21)
(0.249216 -0.145697 -9.88893e-21)
(0.323701 -0.143802 7.58916e-21)
(0.395335 -0.136469 5.46195e-22)
(0.462256 -0.126143 3.0399e-21)
(0.523643 -0.114653 -7.00615e-21)
(0.579245 -0.103136 -1.96633e-20)
(0.0142841 -0.0468694 -2.52689e-21)
(0.0539151 -0.112289 1.41955e-20)
(0.115583 -0.15418 -3.5158e-20)
(0.186249 -0.17734 1.60424e-20)
(0.260669 -0.185756 1.47569e-22)
(0.334823 -0.183466 -2.27917e-20)
(0.405758 -0.174211 1.06845e-20)
(0.471794 -0.161101 -1.12051e-21)
(0.532268 -0.146469 4.5016e-21)
(0.58699 -0.131772 -1.46072e-21)
(0.0182076 -0.0564461 -2.86335e-20)
(0.0631024 -0.135382 -3.60488e-20)
(0.127837 -0.186092 9.62207e-21)
(0.200015 -0.214269 -1.83647e-20)
(0.274811 -0.224655 -5.54695e-21)
(0.348574 -0.222078 8.63729e-21)
(0.418658 -0.211028 3.37106e-21)
(0.483613 -0.195259 1.36736e-20)
(0.542967 -0.177588 -3.07051e-21)
(0.596608 -0.159793 1.77356e-20)
(0.0228134 -0.0655336 2.74197e-20)
(0.0739073 -0.157387 1.84416e-20)
(0.142271 -0.216627 -1.48279e-20)
(0.216258 -0.249741 2.57611e-20)
(0.291525 -0.262154 -2.44065e-21)
(0.364852 -0.259417 -3.11102e-20)
(0.433952 -0.246727 5.73703e-21)
(0.497644 -0.228448 -3.73784e-20)
(0.555682 -0.207865 1.33156e-21)
(0.608057 -0.18707 1.51251e-20)
(0.0280475 -0.0740557 -2.11488e-20)
(0.0862133 -0.178132 3.97504e-20)