/*--------------------------------*- C++ -*----------------------------------*\
  =========                 |
  \\      /  F ield         | OpenFOAM: The Open Source CFD Toolbox
   \\    /   O peration     | Website:  https://openfoam.org
    \\  /    A nd           | Version:  7
     \\/     M anipulation  |
\*---------------------------------------------------------------------------*/
FoamFile
{
    version     2.0;
    format      ascii;
    class       surfaceScalarField;
    location    "95";
    object      phi;
}
// * * * * * * * * * * * * * * * * * * * * * * * * * * * * * * * * * * * * * //

dimensions      [0 3 -1 0 0 0 0];

internalField   nonuniform List<scalar> 
16735
(
-9.16604e-05
-0.000523358
0.000615018
-0.000325585
-0.00163694
0.00187086
-0.000680679
-0.00280211
0.00315721
-0.00113576
-0.00393314
0.00438822
-0.00166883
-0.0050138
0.00554688
-0.00225882
-0.00609675
0.00668674
-0.00288973
-0.00727358
0.00790449
-0.00355676
-0.00863627
0.00930329
-0.00427101
-0.010252
0.0109663
-0.0121542
0.0129466
-0.00506337
-0.000105397
-0.00041796
-0.00037061
-0.00137173
-0.000769121
-0.0024036
-0.00127588
-0.00342638
-0.00186693
-0.00442276
-0.00252111
-0.00544256
-0.00322411
-0.00657059
-0.00397463
-0.00788574
-0.00478984
-0.0094368
-0.0112335
-0.00571057
-0.000117311
-0.000300649
-0.00040933
-0.00107971
-0.000844445
-0.00196849
-0.00139385
-0.00287698
-0.00203134
-0.00378527
-0.00273487
-0.00473904
-0.00348997
-0.00581548
-0.00429606
-0.00707964
-0.00517305
-0.00855982
-0.0102386
-0.00616792
-0.000126885
-0.000173764
-0.00044023
-0.000766364
-0.000903954
-0.00150476
-0.00148575
-0.00229518
-0.00215701
-0.00311401
-0.00289389
-0.00400216
-0.00367987
-0.0050295
-0.0045119
-0.00624762
-0.00540874
-0.00766298
-0.00922835
-0.00641901
-0.000133666
-4.00978e-05
-0.00046198
-0.00043805
-0.000945266
-0.00102148
-0.00154812
-0.00169232
-0.00223941
-0.00242272
-0.00299267
-0.0032489
-0.00378737
-0.0042348
-0.00461455
-0.00542044
-0.00548737
-0.00679016
-0.00826583
-0.00644989
-0.00013728
9.71823e-05
-0.000473468
-0.000101862
-0.000966346
-0.000528599
-0.0015779
-0.00108077
-0.00227441
-0.00172622
-0.00302606
-0.00249724
-0.0038065
-0.00345436
-0.00459722
-0.00462973
-0.00540085
-0.00598652
-0.00741897
-0.00624771
-0.000137451
0.000234633
-0.000473845
0.000234532
-0.000965549
-3.68943e-05
-0.00157245
-0.000473871
-0.00225819
-0.00104048
-0.00298903
-0.00176639
-0.00373119
-0.00271221
-0.00445305
-0.00390786
-0.00514157
-0.005298
-0.00676051
-0.00580003
-0.000134025
0.000368658
-0.000462575
0.000563081
-0.000941701
0.000442232
-0.00152961
0.000114041
-0.00218726
-0.00038283
-0.00287645
-0.0010772
-0.00355478
-0.00203388
-0.00417427
-0.00328837
-0.00470131
-0.00477096
-0.00636679
-0.00509503
-0.000126996
0.000495655
-0.00043951
0.000875595
-0.000894206
0.000896928
-0.00144791
0.000667747
-0.00205859
0.000227849
-0.00268312
-0.000452668
-0.00326975
-0.00144726
-0.00375145
-0.00280667
-0.00407003
-0.00445238
-0.0063139
-0.00412292
-0.00011653
0.000612185
-0.000404966
0.00116403
-0.00082323
0.00131519
-0.00132671
0.00117123
-0.00187001
0.000771143
-0.00240417
8.14946e-05
-0.00286791
-0.000983522
-0.00317337
-0.0025012
-0.0032348
-0.00439095
-0.00667046
-0.00287824
-0.000102987
0.000715172
-0.000359787
0.00142083
-0.000729826
0.00168523
-0.0011667
0.0016081
-0.00162055
0.00122499
-0.00203593
0.000496882
-0.00234116
-0.000678298
-0.00242689
-0.00241548
-0.00217608
-0.00464176
-0.00747832
-0.00136822
-8.69225e-05
0.000802094
-0.000305388
0.0016393
-0.000616088
0.00199593
-0.00097004
0.00196206
-0.00131161
0.00156656
-0.00157678
0.000762051
-0.00168353
-0.000571542
-0.00150041
-0.00259859
-0.000847096
-0.00529507
-0.00871804
0.00039262
-6.90758e-05
0.00087117
-0.000243724
0.00181395
-0.000485157
0.00223736
-0.000740645
0.00221754
-0.000946898
0.00177281
-0.00102872
0.000843875
-0.000893283
-0.000706981
-0.0004038
-0.00308808
0.000740307
-0.00643918
-0.0105926
0.00261486
-5.03192e-05
0.000921489
-0.000177177
0.0019408
-0.000341074
0.00240126
-0.000484042
0.00236051
-0.000532979
0.00182175
-0.00039814
0.000709037
3.73305e-05
-0.00114245
0.00090267
-0.00395342
0.00252881
-0.00806532
-0.013159
0.00509526
-3.15773e-05
0.000953067
-0.000108332
0.00201756
-0.00018839
0.00248132
-0.000206846
0.00237897
-7.86946e-05
0.0016936
0.000302845
0.000327497
0.00107012
-0.00190973
0.002392
-0.00527529
0.00459447
-0.0102678
-0.0163872
0.00782267
-1.37185e-05
0.000966785
-3.96401e-05
0.00204348
-3.15491e-05
0.00247323
8.42556e-05
0.00226316
0.000407602
0.00137025
0.00106519
-0.000330091
0.00221364
-0.00305818
0.00403079
-0.00709244
0.00687986
-0.0131169
-0.0202225
0.0107152
2.55885e-06
0.000964226
2.68715e-05
0.00201917
0.000125873
0.00237423
0.000384237
0.0020048
0.000918012
0.000836474
0.0018768
-0.00128888
0.0034435
-0.00462487
0.00580478
-0.00945372
0.00932179
-0.0166339
-0.0245587
0.0136579
1.68613e-05
0.000947365
8.99396e-05
0.00194609
0.000281807
0.00218236
0.000689934
0.00159667
0.00144913
7.72813e-05
0.0027332
-0.00257295
0.00474932
-0.006641
0.00769676
-0.0124012
0.0118409
-0.0207781
-0.0292435
0.0165258
2.91595e-05
0.000918206
0.000149717
0.00182553
0.000436393
0.00189569
0.0010022
0.00103086
0.00200278
-0.000923298
0.00363637
-0.00420655
0.00612734
-0.00913197
0.00968842
-0.0159622
0.0143502
-0.0254398
-0.0341031
0.0192098
3.98329e-05
0.000878373
0.000207257
0.00165811
0.000592066
0.00151088
0.00132548
0.000297451
0.00258569
-0.00218351
0.00459355
-0.0062144
0.00757672
-0.0121151
0.0117372
-0.0201227
0.0167783
-0.030481
-0.0389891
0.0216644
4.96322e-05
0.00082874
0.000264838
0.0014429
0.000753362
0.00102235
0.00166724
-0.000616422
0.00320784
-0.00372411
0.00561257
-0.00861914
0.00908993
-0.0155925
0.0137548
-0.0247876
0.0190571
-0.0357833
-0.0460679
0.0261359
5.95978e-05
0.000769143
0.00032559
0.00117691
0.000926287
0.000421655
0.00203659
-0.00172673
0.00387942
-0.00556694
0.00669584
-0.0114356
0.0106445
-0.0195411
0.015679
-0.0298222
0.0212511
-0.0413553
-0.0525192
0.0277024
7.09234e-05
0.000698219
0.000393057
0.000854776
0.00111734
-0.000302632
0.00244236
-0.00305174
0.00460712
-0.00773171
0.00783463
-0.0146631
0.0121932
-0.0238997
0.0174442
-0.0350732
0.02302
-0.046931
-0.058239
0.0287397
8.48001e-05
0.000613419
0.000470691
0.000468885
0.00133241
-0.00116435
0.00289086
-0.00461019
0.00539039
-0.0102312
0.00900547
-0.0182781
0.0136721
-0.0285664
0.018972
-0.0403731
0.0242985
-0.0522575
-0.0632976
0.0293571
0.000102266
0.000511154
0.000561366
9.78478e-06
0.00157568
-0.00217866
0.00338404
-0.00641855
0.00621874
-0.0130659
0.0101694
-0.0222288
0.0150114
-0.0334083
0.0201874
-0.0455492
0.0251142
-0.0571843
-0.0676966
0.0295132
0.000124085
0.000387068
0.000666983
-0.000533112
0.00184883
-0.00336051
0.00391805
-0.00848778
0.00707081
-0.0162187
0.0112761
-0.026434
0.016146
-0.0382783
0.0210511
-0.0504542
0.0254859
-0.0616192
-0.071469
0.0292584
0.000150706
0.000236362
0.000788224
-0.00117063
0.00215055
-0.00472283
0.00448282
-0.01082
0.0079158
-0.0196517
0.0122719
-0.0307902
0.0170277
-0.043034
0.0215536
-0.0549802
0.0254624
-0.065528
-0.0746763
0.0286696
0.00018222
5.41422e-05
0.000924533
-0.00191294
0.00247647
-0.00627477
0.00506235
-0.0134059
0.00871718
-0.0233065
0.0131093
-0.0351823
0.0176303
-0.0475549
0.0217125
-0.0590625
0.0251018
-0.0689173
-0.0773868
0.0278123
0.000218416
-0.000164274
0.00107416
-0.00276869
0.00281936
-0.00801997
0.00563607
-0.0162226
0.00943766
-0.0271081
0.0137533
-0.039498
0.0179498
-0.0517514
0.0215621
-0.0626748
0.0244646
-0.0718197
-0.0796724
0.0267502
0.000258829
-0.000423103
0.00123432
-0.00374418
0.0031696
-0.00995524
0.00618077
-0.0192338
0.0100443
-0.0309717
0.0141849
-0.0436386
0.0179999
-0.0555663
0.0211457
-0.0658206
0.0236078
-0.0742818
-0.0815989
0.0255342
0.000302796
-0.000725899
0.00140139
-0.00484277
0.00351581
-0.0120697
0.00667314
-0.0223911
0.0105125
-0.034811
0.0144002
-0.0475263
0.0178058
-0.0589719
0.0205082
-0.068523
0.0225814
-0.076355
-0.083223
0.0242055
0.000349496
-0.00107539
0.00157109
-0.00606437
0.00384565
-0.0143442
0.0070922
-0.0256377
0.0108276
-0.0385464
0.0144078
-0.0511065
0.0173993
-0.0619634
0.019693
-0.0708168
0.0214274
-0.0780894
-0.0845913
0.0227958
0.000397976
-0.00147337
0.00173865
-0.00740504
0.00414668
-0.0167522
0.00742129
-0.0289123
0.0109848
-0.0421099
0.0142246
-0.0543463
0.0168138
-0.0645525
0.0187386
-0.0727416
0.0201797
-0.0795305
-0.0857404
0.0213288
0.000447172
-0.00192054
0.001899
-0.00885687
0.00440735
-0.0192606
0.00764931
-0.0321543
0.0109878
-0.0454484
0.0138726
-0.0572311
0.0160818
-0.0667618
0.017678
-0.0743378
0.0188649
-0.0807174
-0.0866978
0.0198223
0.000495924
-0.00241647
0.00204704
-0.010408
0.00461784
-0.0218314
0.00777097
-0.0353074
0.0108466
-0.0485241
0.0133758
-0.0597602
0.0152333
-0.0686193
0.0165387
-0.0756432
0.0175035
-0.0816822
-0.0874835
0.0182892
0.000543004
-0.00295947
0.00217785
-0.0120428
0.00477073
-0.0244243
0.0077863
-0.038323
0.0105751
-0.0513129
0.0127583
-0.0619434
0.0142945
-0.0701556
0.0153428
-0.0766916
0.0161109
-0.0824503
-0.0881116
0.0167391
0.000587154
-0.00354662
0.00228697
-0.0137426
0.00486135
-0.0269987
0.00769965
-0.0411613
0.0101894
-0.0538027
0.0120427
-0.0637966
0.0132877
-0.0714006
0.0141079
-0.0775118
0.014699
-0.0830413
-0.0885919
0.0151792
0.000627135
-0.00417376
0.00237068
-0.0154862
0.00488789
-0.0295159
0.00751857
-0.0437919
0.00970631
-0.0559904
0.0112496
-0.06534
0.0122317
-0.0723827
0.0128478
-0.0781279
0.0132764
-0.0834699
-0.0889305
0.0136151
0.000661778
-0.00483554
0.00242619
-0.0172506
0.00485106
-0.0319407
0.00725262
-0.0461935
0.00914233
-0.0578801
0.0103972
-0.0665948
0.0111417
-0.0731272
0.0115731
-0.0785592
0.01185
-0.0837469
-0.0891317
0.0120512
0.000690034
-0.00552557
0.00245173
-0.0190123
0.00475374
-0.0342428
0.00691243
-0.0483522
0.00851293
-0.0594806
0.00950091
-0.0675828
0.01003
-0.0736563
0.010292
-0.0788212
0.0104248
-0.0838797
-0.0891983
0.0104914
0.00071102
-0.00623659
0.00244658
-0.0207479
0.00460036
-0.0363965
0.00650894
-0.0502608
0.00783217
-0.0608038
0.00857395
-0.0683245
0.00890651
-0.0739889
0.00901092
-0.0789256
0.0090049
-0.0838737
-0.0891319
0.00893851
0.000724047
-0.00696064
0.00241104
-0.0224349
0.00439645
-0.0383819
0.00605284
-0.0519172
0.0071125
-0.0618635
0.0076272
-0.0688393
0.00777899
-0.0741407
0.0077348
-0.0788814
0.00759349
-0.0837323
-0.0889328
0.00739444
0.000728641
-0.00768928
0.00234624
-0.0240525
0.00414811
-0.0401838
0.00555423
-0.0533233
0.0063648
-0.0626741
0.00666967
-0.0691441
0.00665356
-0.0741245
0.00646739
-0.0786953
0.0061931
-0.0834581
-0.0886007
0.00586095
0.000724544
-0.00841382
0.00225401
-0.0255819
0.00386167
-0.0417915
0.00502238
-0.054484
0.00559839
-0.0632501
0.00570871
-0.0692544
0.00553513
-0.073951
0.00521165
-0.0783718
0.0048057
-0.0830521
-0.0881344
0.00433937
0.000711709
-0.00912553
0.0021367
-0.0270069
0.00354336
-0.0431981
0.00446562
-0.0554063
0.0048212
-0.0636056
0.00475039
-0.0691836
0.00442784
-0.0736284
0.0039704
-0.0779143
0.00343259
-0.0825143
-0.0875323
0.0028305
0.000690295
-0.00981583
0.00199692
-0.0283135
0.00319914
-0.0444003
0.00389131
-0.0560984
0.00403984
-0.0637542
0.00379958
-0.0689434
0.00333527
-0.0731641
0.0027473
-0.0773264
0.00207488
-0.0818419
-0.0867886
0.00133126
0.000660666
-0.0104765
0.00183775
-0.0294906
0.00283461
-0.0453972
0.00330585
-0.0565697
0.00325982
-0.0637082
0.00286016
-0.0685437
0.00226007
-0.072564
0.00154564
-0.0766119
0.000742246
-0.0810385
-0.0858639
-0.000182487
0.000623358
-0.0110999
0.00166224
-0.0305295
0.0024549
-0.0461899
0.00271481
-0.0568296
0.00248568
-0.063479
0.0019352
-0.0679932
0.00120403
-0.0718328
0.000359977
-0.0757679
-0.000561628
-0.0801169
-0.0848425
-0.00158303
0.00057903
-0.0116789
0.00147326
-0.0314237
0.00206468
-0.0467813
0.00212292
-0.0568878
0.00172113
-0.0630772
0.00102723
-0.0672993
0.000165134
-0.0709707
-0.000795082
-0.0748077
-0.00185451
-0.0790574
-0.0837062
-0.00299079
0.000528449
-0.0122073
0.00127363
-0.0321689
0.00166811
-0.0471758
0.00153419
-0.0567539
0.000969074
-0.0625121
0.000136618
-0.0664669
-0.000842091
-0.069992
-0.00192659
-0.0737232
-0.00311276
-0.0778713
-0.0824407
-0.00437832
0.000472471
-0.0126798
0.00106604
-0.0327625
0.00126891
-0.0473786
0.000951898
-0.0564369
0.000232547
-0.0617928
-0.000727924
-0.0655064
-0.00182835
-0.0688916
-0.00303379
-0.0725177
-0.00434291
-0.0765621
-0.0810454
-0.00573822
0.000411995
-0.0130918
0.000853231
-0.0332037
0.000870123
-0.0473955
0.000379799
-0.0559466
-0.000486411
-0.0609266
-0.00157246
-0.0644204
-0.0027904
-0.0676737
-0.00411373
-0.0711944
-0.00554472
-0.0751312
-0.0795221
-0.00706796
0.000347847
-0.0134396
0.000637893
-0.0334938
0.000475053
-0.0472327
-0.000180132
-0.0552914
-0.00118671
-0.05992
-0.00239439
-0.0632127
-0.00372664
-0.0663414
-0.00516527
-0.0697558
-0.00671666
-0.0735798
-0.0778735
-0.00836531
0.000281006
-0.0137206
0.000421748
-0.0336345
9.56308e-05
-0.0469066
-0.000728753
-0.054467
-0.00186818
-0.0587806
-0.00319258
-0.0618883
-0.00463618
-0.0648978
-0.00618763
-0.0682043
-0.00785734
-0.0719101
-0.0761033
-0.0096275
0.000213529
-0.0139342
0.000206652
-0.0336276
-0.00029933
-0.0464006
-0.00126333
-0.053503
-0.00252904
-0.0575148
-0.00396621
-0.0604511
-0.00551831
-0.0633457
-0.00718015
-0.0665425
-0.00896536
-0.0701248
-0.0742181
-0.0108505
0.000145018
-0.0140792
1.44297e-05
-0.033497
-0.000676943
-0.0457092
-0.00178356
-0.0523964
-0.00316875
-0.0561297
-0.00471457
-0.0589053
-0.00637239
-0.0616879
-0.00814207
-0.0647728
-0.0100395
-0.0682274
-0.0722231
-0.0120346
7.02937e-05
-0.0141495
-0.00022626
-0.0332005
-0.00104575
-0.0448897
-0.00228643
-0.0511557
-0.00378647
-0.0546296
-0.0054372
-0.0572546
-0.00719802
-0.0599271
-0.00907288
-0.0628979
-0.0110798
-0.0662205
-0.0701151
-0.0131878
-9.499e-06
-0.01414
-0.000443322
-0.0327667
-0.00140392
-0.0439291
-0.00277102
-0.0497886
-0.0043812
-0.0530194
-0.00613369
-0.0555021
-0.00799558
-0.0580652
-0.00997373
-0.0609198
-0.0120857
-0.0641085
-0.067893
-0.0143079
-7.85097e-05
-0.0140615
-0.000650824
-0.0321944
-0.00174963
-0.0428303
-0.00323698
-0.0483013
-0.0049523
-0.0513041
-0.00680349
-0.0536509
-0.00876573
-0.0561029
-0.0108482
-0.0588373
-0.0130525
-0.0619041
-0.0655735
-0.0153719
-0.000150469
-0.013911
-0.00085127
-0.0314936
-0.00208202
-0.0415996
-0.00368359
-0.0466997
-0.00549906
-0.0494886
-0.00744557
-0.0517044
-0.00950634
-0.0540422
-0.0116944
-0.0566492
-0.0140189
-0.0595797
-0.0633058
-0.0162866
-0.000221431
-0.0136896
-0.00104491
-0.0306701
-0.00240051
-0.040244
-0.00411028
-0.0449899
-0.00602104
-0.0475779
-0.00805887
-0.0496665
-0.0102123
-0.0518887
-0.0124823
-0.0543792
-0.0148312
-0.0572308
-0.06051
-0.0176271
-0.000290636
-0.0133989
-0.00123134
-0.0297294
-0.00270469
-0.0387706
-0.00451665
-0.043178
-0.00651804
-0.0455765
-0.00864283
-0.0475418
-0.0108803
-0.0496512
-0.0132263
-0.0520332
-0.0156989
-0.0547582
-0.0577353
-0.0184735
-0.00035769
-0.0130413
-0.00141001
-0.0286771
-0.00299419
-0.0371864
-0.00490241
-0.0412697
-0.00698978
-0.0434891
-0.00919735
-0.0453342
-0.0115172
-0.0473314
-0.013954
-0.0495965
-0.0165424
-0.0521698
-0.0549387
-0.019339
-0.000422294
-0.012619
-0.00158043
-0.0275189
-0.00326867
-0.0354982
-0.00526729
-0.0392711
-0.00743582
-0.0413206
-0.00972162
-0.0430484
-0.0121198
-0.0449332
-0.0146404
-0.0470759
-0.0173144
-0.0494958
-0.0520922
-0.0201609
-0.00048418
-0.0121348
-0.0017422
-0.0262609
-0.00352783
-0.0337126
-0.00561111
-0.0371878
-0.00785606
-0.0390756
-0.0102159
-0.0406885
-0.0126892
-0.04246
-0.0152888
-0.0444762
-0.0180397
-0.0467449
-0.0491839
-0.0209479
-0.00054311
-0.0115917
-0.00189494
-0.0249091
-0.00377141
-0.0318361
-0.00593369
-0.0350256
-0.00825033
-0.036759
-0.01068
-0.0382588
-0.0132242
-0.0399158
-0.015897
-0.0418034
-0.0187188
-0.0439231
-0.046209
-0.0216937
-0.000598869
-0.0109928
-0.00203837
-0.0234696
-0.00399921
-0.0298753
-0.00623493
-0.0327898
-0.00861854
-0.0343754
-0.0111138
-0.0357636
-0.0137245
-0.0373052
-0.0164653
-0.0390625
-0.0193544
-0.041034
-0.0431673
-0.0223961
-0.000651267
-0.0103415
-0.00217223
-0.0219486
-0.00421107
-0.0278364
-0.00651474
-0.0304862
-0.00896061
-0.0319295
-0.011517
-0.0332071
-0.0141898
-0.0346324
-0.016994
-0.0362583
-0.0199465
-0.0380816
-0.0400605
-0.0230532
-0.000700136
-0.0096414
-0.00229631
-0.0203524
-0.00440684
-0.0257259
-0.00677303
-0.02812
-0.00927646
-0.0294261
-0.0118896
-0.030594
-0.0146199
-0.0319022
-0.0174828
-0.0333954
-0.0204948
-0.0350695
-0.0368919
-0.0236634
-0.000745331
-0.00889607
-0.00241044
-0.0186873
-0.00458643
-0.0235499
-0.00700977
-0.0256966
-0.00956602
-0.0268698
-0.0122313
-0.0279287
-0.0150146
-0.0291189
-0.0179317
-0.0304783
-0.0209989
-0.0320023
-0.0336655
-0.0242253
-0.000786726
-0.00810934
-0.00251447
-0.0169596
-0.00474974
-0.0213146
-0.00722491
-0.0232214
-0.00982923
-0.0242655
-0.0125421
-0.0252158
-0.0153738
-0.0262872
-0.0183403
-0.0275118
-0.0214583
-0.0288843
-0.0303857
-0.024738
-0.00082421
-0.00728513
-0.00260828
-0.0151755
-0.0048967
-0.0190262
-0.0074184
-0.0206997
-0.010066
-0.0216179
-0.0128219
-0.02246
-0.0156972
-0.0234119
-0.0187085
-0.0245005
-0.0218724
-0.0257204
-0.0270577
-0.0252005
-0.000857692
-0.00642744
-0.00269177
-0.0133414
-0.00502728
-0.0166907
-0.00759024
-0.0181368
-0.0102764
-0.0189318
-0.0130705
-0.0196659
-0.0159848
-0.0204976
-0.019036
-0.0214492
-0.0222409
-0.0225155
-0.0236865
-0.0256121
-0.000887092
-0.00554035
-0.00276486
-0.0114636
-0.00514142
-0.0143142
-0.00774038
-0.0155378
-0.0104602
-0.0162119
-0.0132879
-0.0168382
-0.0162363
-0.0175492
-0.0193225
-0.018363
-0.0225633
-0.0192747
-0.0202775
-0.0259723
-0.000912343
-0.00462801
-0.00282747
-0.00954853
-0.00523908
-0.0119025
-0.00786882
-0.0129081
-0.0106175
-0.0134632
-0.0134739
-0.0139818
-0.0164516
-0.0145715
-0.0195679
-0.0152468
-0.0228395
-0.0160031
-0.0168361
-0.0262809
-0.000933389
-0.00369462
-0.00287955
-0.00760237
-0.00532025
-0.00946184
-0.00797555
-0.0102528
-0.0107483
-0.0106905
-0.0136286
-0.0111014
-0.0166307
-0.0115694
-0.019772
-0.0121055
-0.0230692
-0.0127059
-0.0133679
-0.0265374
-0.000950186
-0.00274443
-0.00292105
-0.00563151
-0.00538489
-0.00699801
-0.00806054
-0.00757713
-0.0108524
-0.00789866
-0.0137519
-0.00820193
-0.0167735
-0.00854785
-0.0199347
-0.0089443
-0.0232522
-0.00938834
-0.00987829
-0.0267418
-0.000962698
-0.00178173
-0.00295194
-0.00364227
-0.00543299
-0.00451696
-0.0081238
-0.00488632
-0.01093
-0.00509251
-0.0138437
-0.00528818
-0.0168798
-0.00551176
-0.0200559
-0.00576822
-0.0233887
-0.00605557
-0.00637281
-0.0268941
-0.0009709
-0.000810833
-0.00297219
-0.00164098
-0.00546454
-0.00202461
-0.00816531
-0.00218554
-0.0109809
-0.00227694
-0.013904
-0.00236502
-0.0169497
-0.0024661
-0.0201355
-0.00258236
-0.0234783
-0.00271286
-0.00285693
-0.0269941
-0.000974775
0.000163941
-0.00298179
0.000366037
-0.00547953
0.000473126
-0.00818508
0.000520012
-0.0110052
0.000543139
-0.0139328
0.000562648
-0.0169831
0.000584157
-0.0201736
0.000608174
-0.0235211
0.000634593
0.000663015
-0.027041
-0.000974313
0.00113825
-0.00298072
0.00237245
-0.00547795
0.00297035
-0.0081831
0.00322516
-0.0110028
0.00336286
-0.0139301
0.00348997
-0.0169801
0.00363407
-0.0201703
0.0037984
-0.0235174
0.00398174
0.00418364
-0.027038
-0.000969516
0.00210777
-0.00296899
0.00437193
-0.00545981
0.00546117
-0.00815936
0.0059247
-0.0109738
0.00617732
-0.0138959
0.00641206
-0.0169405
0.00667868
-0.0201253
0.0069832
-0.023467
0.0073234
0.00769843
-0.0269818
-0.00096039
0.00306816
-0.00294661
0.00635814
-0.0054251
0.00793966
-0.00811386
0.00861346
-0.0109182
0.00898165
-0.0138302
0.00932405
-0.0168645
0.009713
-0.0200388
0.0101575
-0.0233697
0.0106543
0.0112019
-0.0268732
-0.000946952
0.00401511
-0.00291357
0.00832476
-0.00537383
0.0103999
-0.00804661
0.0112862
-0.0108359
0.011771
-0.0137329
0.0122211
-0.016752
0.0127321
-0.0199107
0.0133162
-0.0232257
0.0139693
0.0146887
-0.0267125
-0.000929227
0.00494434
-0.00286992
0.0102654
-0.00530599
0.012836
-0.00795759
0.0139378
-0.010727
0.0145404
-0.0136042
0.0150983
-0.0166032
0.015731
-0.0197412
0.0164542
-0.0230351
0.0172632
0.0181534
-0.0264998
-0.000907251
0.00585159
-0.00281567
0.0121739
-0.00522161
0.0152419
-0.00784682
0.016563
-0.0105915
0.0172851
-0.0134441
0.0179508
-0.0164179
0.0187049
-0.0195303
0.0195666
-0.0227979
0.0205308
0.0215904
-0.0262349
-0.000881065
0.00673265
-0.00275087
0.0140437
-0.0051207
0.0176118
-0.00771429
0.0191566
-0.0104294
0.0200002
-0.0132525
0.0207739
-0.0161964
0.0216488
-0.0192781
0.0226483
-0.0225142
0.023767
0.0249944
-0.0259182
-0.000850726
0.00758338
-0.00267557
0.0158685
-0.00500327
0.0199395
-0.00756001
0.0217134
-0.0102407
0.0226809
-0.0130296
0.0235629
-0.0159387
0.0245579
-0.0189847
0.0256943
-0.0221843
0.0269665
0.0283599
-0.0255498
-0.000816299
0.00839968
-0.00258984
0.0176421
-0.00486935
0.022219
-0.00738398
0.024228
-0.0100254
0.0253224
-0.0127754
0.0263128
-0.015645
0.0274274
-0.0186505
0.0286998
-0.0218084
0.0301245
0.0316817
-0.0251302
-0.000777863
0.00917754
-0.00249376
0.019358
-0.00471898
0.0244442
-0.00718621
0.0266952
-0.00978366
0.0279198
-0.01249
0.0290192
-0.0153153
0.0302527
-0.0182754
0.0316599
-0.0213869
0.0332359
0.0349545
-0.0246597
-0.000735508
0.00991305
-0.00238741
0.0210099
-0.0045522
0.026609
-0.00696672
0.0291098
-0.00951538
0.0304685
-0.0121735
0.0316774
-0.0149498
0.033029
-0.0178599
0.03457
-0.0209202
0.0362962
0.0381736
-0.0241392
-0.000689344
0.0106024
-0.00227092
0.0225914
-0.00436906
0.0287071
-0.00672553
0.0314662
-0.00922065
0.0329636
-0.011826
0.0342827
-0.0145487
0.0357517
-0.0174042
0.0374255
-0.0204087
0.0393007
0.0413343
-0.0235694
-0.000639496
0.0112419
-0.00214443
0.0240964
-0.00416964
0.0307323
-0.00646266
0.0337592
-0.00889952
0.0354004
-0.0114475
0.0368307
-0.0141122
0.0384164
-0.0169084
0.0402217
-0.019853
0.0422452
0.0444329
-0.0229515
-0.000586108
0.011828
-0.0020081
0.0255184
-0.00395403
0.0326783
-0.00617815
0.0359833
-0.00855202
0.0377743
-0.0110383
0.039317
-0.0136403
0.0410184
-0.0163728
0.0429542
-0.0192535
0.045126
0.047466
-0.0222867
-0.000529346
0.0123573
-0.00186214
0.0268512
-0.00372235
0.0345385
-0.00587204
0.038133
-0.00817821
0.0400805
-0.0105984
0.0417371
-0.0131333
0.0435534
-0.0157973
0.0456182
-0.0186105
0.0479391
0.0504321
-0.0215765
-0.0004694
0.0128267
-0.00170679
0.0280886
-0.00347476
0.0363064
-0.00554441
0.0402027
-0.00777816
0.0423142
-0.0101279
0.0440869
-0.0125915
0.046017
-0.0151819
0.0482086
-0.0179237
0.0506809
0.0533313
-0.020823
-0.000406482
0.0132332
-0.00154234
0.0292244
-0.00321143
0.0379755
-0.00519535
0.0421866
-0.00735192
0.0444708
-0.009627
0.046362
-0.0120151
0.048405
-0.014526
0.0507195
-0.0171906
0.0533455
0.0561687
-0.0200279
-0.000340832
0.0135741
-0.00136914
0.0302527
-0.0029326
0.039539
-0.00482499
0.044079
-0.00689963
0.0465454
-0.00909592
0.0485583
-0.0114053
0.0507144
-0.0138319
0.0531462
-0.0164104
0.055924
0.0589556
-0.0191973
-0.000272719
0.0138468
-0.00118758
0.0311676
-0.00263854
0.0409899
-0.0044335
0.045874
-0.00642137
0.0485333
-0.00853431
0.0506712
-0.0107609
0.0529409
-0.0130963
0.0554817
-0.015558
0.0583857
0.0617179
-0.0183204
-0.000202467
0.0140492
-0.000998139
0.0319633
-0.00232957
0.0423214
-0.00402111
0.0475655
-0.00591752
0.0504297
-0.00794291
0.0526966
-0.0100849
0.0550829
-0.0123438
0.0577405
-0.0146807
0.0607226
0.0644968
-0.0174596
-0.000130546
0.0141798
-0.000801253
0.032634
-0.00200605
0.0435262
-0.00358812
0.0491476
-0.00538835
0.0522299
-0.00732184
0.0546301
-0.00937088
0.057132
-0.0115481
0.0599178
-0.0138627
0.0630372
0.0667623
-0.0161283
-5.80982e-05
0.0142379
-0.000597128
0.033173
-0.00166841
0.0445975
-0.00313489
0.0506141
-0.004834
0.053929
-0.00667163
0.0564677
-0.0086219
0.0590822
-0.0106937
0.0619896
-0.0128892
0.0652327
0.0690772
-0.015204
1.35749e-05
0.0142243
-0.000384998
0.0335716
-0.00131732
0.0455298
-0.00266195
0.0519587
-0.00425487
0.055522
-0.00599322
0.058206
-0.00784282
0.0609318
-0.00981021
0.063957
-0.0119131
0.0673356
0.0712937
-0.0141296
9.36588e-05
0.0141307
-0.000160918
0.0338262
-0.000953923
0.0463228
-0.00216986
0.0531746
-0.0036516
0.0570037
-0.00528755
0.059842
-0.0070357
0.06268
-0.00889968
0.0658209
-0.0108976
0.0693335
0.0733953
-0.0129992
0.000167626
0.013963
6.65955e-05
0.0339272
-0.000580021
0.0469694
-0.00165911
0.0542537
-0.00302488
0.0583695
-0.00455513
0.0613722
-0.00619991
0.0643248
-0.00795861
0.0675797
-0.00984728
0.0712222
0.0753842
-0.0118361
0.000237528
0.0137255
0.000272192
0.0338925
-0.000190881
0.0474325
-0.0011311
0.0551939
-0.00237549
0.0596139
-0.00379624
0.062793
-0.00533497
0.0658635
-0.00698574
0.0692304
-0.00876248
0.0729989
0.0772637
-0.0106421
0.000306359
0.0134191
0.000490828
0.033708
0.00020108
0.0477222
-0.000589181
0.0559842
-0.00170395
0.0607286
-0.00301141
0.0641004
-0.0044412
0.0672933
-0.00598152
0.0707707
-0.00764309
0.0746605
0.0790291
-0.00940841
0.000373959
0.0130452
0.000710636
0.0333714
0.000592627
0.0478402
-2.45165e-05
0.0566014
-0.00101092
0.061715
-0.00220121
0.0652907
-0.00351913
0.0686112
-0.00494657
0.0721982
-0.00649025
0.0762042
0.0806736
-0.00813477
0.000438671
0.0126065
0.000929561
0.0328805
0.000994335
0.0477754
0.00053936
0.0570563
-0.000299678
0.0625541
-0.00136639
0.0663575
-0.0025694
0.0698142
-0.00388143
0.0735102
-0.00530526
0.077628
0.0821933
-0.00682497
0.000499531
0.012107
0.00114551
0.0322345
0.00139996
0.047521
0.001123
0.0573333
0.000432269
0.0632448
-0.00050844
0.0672982
-0.00159296
0.0708987
-0.00278672
0.074704
-0.00408937
0.0789307
0.0835855
-0.00548159
0.000555683
0.0115513
0.00135596
0.0314342
0.00180633
0.0470706
0.00171634
0.0574233
0.00118254
0.0637786
0.000373328
0.0681074
-0.00059174
0.0718638
-0.00166346
0.0757757
-0.00284389
0.0801111
0.0848483
-0.00410673
0.000606211
0.0109451
0.00155816
0.0304823
0.00220999
0.0464188
0.00231641
0.0573169
0.00194889
0.0641461
0.00127886
0.0687774
0.000435963
0.0727067
-0.000515968
0.0767276
-0.0015681
0.0811632
0.0859836
-0.00270335
0.000650233
0.0102949
0.00174928
0.0293832
0.00260711
0.045561
0.00291997
0.057004
0.00272861
0.0643375
0.00220409
0.0693019
0.00149113
0.0734197
0.000662401
0.0775564
-0.000248502
0.0820741
0.087015
-0.0012799
0.000686954
0.0096079
0.00192642
0.0281438
0.00299335
0.044494
0.0035229
0.0564745
0.00351871
0.0643417
0.00314756
0.0696731
0.00256719
0.074
0.00186548
0.0782581
0.00106574
0.0828739
0.0879374
0.000143334
0.000715693
0.00889221
0.00208654
0.0267729
0.00336389
0.0432167
0.00412028
0.0557181
0.0043154
0.0641466
0.00410674
0.0698817
0.00366386
0.0744429
0.00308974
0.0788322
0.00242525
0.0835384
0.0886755
0.00168715
0.000735902
0.0081563
0.00222634
0.0252825
0.00371334
0.0417297
0.00470635
0.054725
0.00511403
0.0637389
0.00507857
0.0699172
0.00477975
0.0747417
0.00433782
0.0792741
0.0038084
0.0840678
0.0892762
0.00320765
0.000747223
0.00740908
0.00234273
0.023687
0.00403585
0.0400366
0.00527442
0.0534865
0.00590893
0.0631044
0.00605915
0.069767
0.00591214
0.0748888
0.00560586
0.0795804
0.00520871
0.0844649
0.0897422
0.00474274
0.000749508
0.00665957
0.00243294
0.0220035
0.00432512
0.0381444
0.00581678
0.0519948
0.0066932
0.062228
0.00704345
0.0694167
0.00705744
0.0748748
0.00689055
0.0797473
0.00662618
0.0847293
0.0900738
0.00629461
0.000742822
0.00591675
0.0024945
0.0202519
0.00457457
0.0360643
0.00632466
0.0502447
0.00745858
0.061094
0.00802524
0.06885
0.00821154
0.0746885
0.00818941
0.0797694
0.00805986
0.0848589
0.0902714
0.00786225
0.000727453
0.0051893
0.00252552
0.0184538
0.00477751
0.0338123
0.00678827
0.048234
0.00819528
0.059687
0.0089969
0.0680484
0.00936951
0.0743159
0.00949965
0.0796393
0.0095079
0.0848506
0.0903349
0.00944438
0.00070392
0.00448538
0.00252483
0.0166329
0.00492744
0.0314097
0.00719689
0.0459645
0.00889184
0.0579921
0.00994906
0.0669912
0.0105251
0.0737398
0.0108175
0.0793468
0.0109679
0.0847002
0.0902633
0.0110395
0.000672966
0.00381241
0.0024922
0.0148136
0.00501852
0.0288834
0.00753914
0.0434439
0.00953507
0.0559962
0.0108702
0.065656
0.0116702
0.0729398
0.0121382
0.0788789
0.012437
0.0844014
0.0900541
0.0126462
0.00063554
0.00317687
0.00242846
0.0130207
0.00504604
0.0262658
0.00780334
0.0406866
0.01011
0.0536895
0.0117466
0.0640194
0.0127947
0.0718917
0.0134551
0.0782186
0.0139112
0.0839453
0.0897035
0.0142618
0.000592764
0.00258411
0.00233557
0.0112779
0.00500699
0.0235944
0.00797806
0.0377155
0.0106
0.0510676
0.0125616
0.0620579
0.0138856
0.0705676
0.0147599
0.0773443
0.0153857
0.0833195
0.0892062
0.0158831
0.000545882
0.00203823
0.00221659
0.00960721
0.0049007
0.0209103
0.00805303
0.0345632
0.0109875
0.0481331
0.0132959
0.0597494
0.0149268
0.0689367
0.0160417
0.0762294
0.0168538
0.0825074
0.088554
0.017506
0.000496199
0.00154203
0.00207552
0.00802789
0.00472921
0.0182566
0.00802007
0.0312723
0.0112541
0.0448991
0.0139274
0.0570762
0.0158984
0.0669656
0.017286
0.0748418
0.0183069
0.0814865
0.0877355
0.0191254
0.000445019
0.00109701
0.00191706
0.00655585
0.00449762
0.015676
0.00787442
0.0278955
0.0113824
0.0413911
0.0144314
0.0540271
0.0167765
0.0646205
0.0184745
0.0731438
0.019733
0.0802281
0.0867337
0.0207347
0.000393572
0.000703436
0.0017463
0.00520312
0.00421384
0.0132085
0.00761596
0.0244934
0.0113568
0.0376503
0.0147819
0.050602
0.0175328
0.0618696
0.0195837
0.071093
0.0211161
0.0786957
0.0855251
0.0223247
0.000342948
0.000360488
0.00156835
0.00397772
0.00388813
0.0108887
0.00725022
0.0211313
0.0111663
0.0337342
0.0149522
0.0468161
0.0181347
0.0586871
0.0205842
0.0686435
0.0224351
0.0768448
0.0840775
0.0238827
0.000294039
6.6449e-05
0.00138796
0.00288379
0.00353223
0.00874445
0.00678881
0.0178747
0.0108063
0.0297167
0.0149178
0.0427047
0.0185466
0.0550583
0.0214404
0.0657497
0.0236619
0.0746232
0.0823484
0.025391
0.000247513
-0.000181064
0.00120934
0.00192197
0.00315829
0.0067955
0.00624888
0.0147841
0.0102812
0.0256843
0.0146592
0.0383267
0.018731
0.0509865
0.0221103
0.0623705
0.0247605
0.071973
0.0802833
0.0268256
0.000203794
-0.000384858
0.00103589
0.00108987
0.00277786
0.00505353
0.00565166
0.0119103
0.00960587
0.0217301
0.0141659
0.0337666
0.0186524
0.0465
0.0225464
0.0584765
0.0256858
0.0688335
0.0778153
0.0281538
0.000163123
-0.00054798
0.000870292
0.000382705
0.00240119
0.00352263
0.00502035