/*--------------------------------*- C++ -*----------------------------------*\
  =========                 |
  \\      /  F ield         | OpenFOAM: The Open Source CFD Toolbox
   \\    /   O peration     | Website:  https://openfoam.org
    \\  /    A nd           | Version:  7
     \\/     M anipulation  |
\*---------------------------------------------------------------------------*/
FoamFile
{
    version     2.0;
    format      ascii;
    class       volVectorField;
    location    "95";
    object      U;
}
// * * * * * * * * * * * * * * * * * * * * * * * * * * * * * * * * * * * * * //

dimensions      [0 1 -1 0 0 0 0];

internalField   nonuniform List<vector> 
8500
(
(-0.00117253 -0.0166165 9.50707e-22)
(-0.00734054 -0.0474239 -2.7286e-21)
(-0.019577 -0.0746877 -3.18026e-21)
(-0.0344243 -0.0966798 3.15964e-21)
(-0.0505103 -0.113749 -2.90664e-21)
(-0.0665842 -0.127643 -1.54981e-21)
(-0.0816958 -0.140461 2.64833e-21)
(-0.0954385 -0.153819 3.28777e-21)
(-0.107768 -0.168518 -5.4132e-22)
(-0.119035 -0.184622 1.59145e-21)
(-0.000931705 -0.013803 -1.05019e-21)
(-0.0070755 -0.0410363 3.24371e-21)
(-0.0200185 -0.0661853 -7.62855e-21)
(-0.0358568 -0.0871418 6.91816e-21)
(-0.053076 -0.104021 3.03059e-22)
(-0.0703163 -0.118331 5.06823e-21)
(-0.0865709 -0.131908 -8.81417e-21)
(-0.101452 -0.14607 -1.29068e-20)
(-0.11498 -0.161334 -2.52969e-21)
(-0.127652 -0.177517 5.73181e-21)
(-0.000918966 -0.0106245 9.68501e-22)
(-0.007236 -0.0339136 7.14142e-21)
(-0.0208475 -0.0568117 1.68133e-20)
(-0.0374931 -0.0767285 -1.52129e-20)
(-0.055549 -0.0934746 -3.44608e-21)
(-0.0735629 -0.108271 -3.12659e-21)
(-0.0904659 -0.122656 1.59935e-20)
(-0.105867 -0.137633 9.92521e-21)
(-0.119808 -0.153402 2.41081e-21)
(-0.132821 -0.169498 -1.77729e-20)
(-0.00115868 -0.00715417 3.43562e-21)
(-0.00784854 -0.0262047 -4.18698e-21)
(-0.0220575 -0.0467447 -3.14062e-20)
(-0.0392862 -0.0656222 2.76705e-21)
(-0.0578427 -0.082287 8.61348e-21)
(-0.0762023 -0.0976351 -6.72253e-21)
(-0.0932265 -0.112892 -2.9791e-22)
(-0.108493 -0.128729 -2.73794e-21)
(-0.122018 -0.144995 6.17422e-21)
(-0.134224 -0.160881 1.77506e-20)
(-0.0016639 -0.00347984 2.39216e-21)
(-0.0089196 -0.0180815 -1.3532e-20)
(-0.0236223 -0.0361816 3.25139e-20)
(-0.041171 -0.054017 -1.48321e-20)
(-0.059854 -0.0706376 -5.28965e-23)
(-0.0780959 -0.0865931 2.05291e-20)
(-0.0946804 -0.102793 -9.4022e-21)
(-0.109122 -0.119573 1.04058e-21)
(-0.121365 -0.136388 -3.86568e-21)
(-0.131506 -0.151993 1.44565e-21)
(-0.00243454 0.000299522 2.86393e-20)
(-0.0104333 -0.00973335 3.48325e-20)
(-0.0254932 -0.0253347 -8.89586e-21)
(-0.0430619 -0.0421159 1.70171e-20)
(-0.0614583 -0.0587072 5.40071e-21)
(-0.0790804 -0.075306 -7.63748e-21)
(-0.0946247 -0.0925179 -2.96301e-21)
(-0.107505 -0.110357 -1.29501e-20)
(-0.117569 -0.12784 2.81612e-21)
(-0.124236 -0.143162 -1.65076e-20)
(-0.00345631 0.00407738 -2.76135e-20)
(-0.0123499 -0.00136166 -1.81716e-20)
(-0.0275988 -0.0144273 1.48897e-20)
(-0.0448512 -0.0301291 -2.5853e-20)
(-0.0625061 -0.0466776 3.02172e-21)
(-0.0789598 -0.0639259 3.04535e-20)
(-0.092812 -0.082206 -5.5126e-21)
(-0.103336 -0.101241 3.58615e-20)
(-0.110294 -0.119582 -7.05737e-22)
(-0.11188 -0.134713 -1.45387e-20)
(-0.00470057 0.00774398 2.32798e-20)
(-0.0146065 0.00682583 -4.22033e-20)
(-0.0298451 -0.00369025 -1.68417e-20)
(-0.0464093 -0.0182736 1.96692e-20)
(-0.0628224 -0.0347328 7.51706e-22)
(-0.077501 -0.0525985 -5.72997e-20)
(-0.0889405 -0.0719707 -3.4948e-21)
(-0.0962229 -0.0923376 -2.85369e-20)
(-0.0991241 -0.111798 -3.66329e-20)
(-0.0937735 -0.126951 2.15164e-20)
(-0.00612517 0.0111912 -1.29921e-20)
(-0.0171184 0.0146217 6.29318e-21)
(-0.032118 0.00664201 1.55396e-20)
(-0.0475871 -0.00677335 -1.41148e-20)
(-0.0622074 -0.0230636 -4.93145e-20)
(-0.0744334 -0.0414675 1.69288e-20)
(-0.0826487 -0.0619039 2.38465e-21)
(-0.08568 -0.0837059 4.3163e-20)
(-0.0835478 -0.104604 5.65071e-20)
(-0.0691145 -0.120131 -2.53102e-20)
(-0.00767653 0.0143176 2.06262e-20)
(-0.0197829 0.0218258 1.88645e-20)
(-0.0342882 0.0163355 -2.70699e-21)
(-0.048221 0.00414004 6.99906e-20)
(-0.0604416 -0.0118745 2.98195e-20)
(-0.0694542 -0.030685 2.24596e-20)
(-0.07352 -0.0520873 3.21014e-20)
(-0.0711188 -0.0753449 -1.3917e-20)
(-0.0629504 -0.0980244 -1.89297e-20)
(-0.037003 -0.114314 -3.11285e-20)
(-0.00929281 0.0170341 -1.84192e-21)
(-0.0224844 0.028253 -2.9947e-20)
(-0.0362162 0.0251618 -2.16307e-20)
(-0.0481403 0.0142286 -3.47164e-20)
(-0.0572953 -0.00138822 -2.76365e-20)
(-0.0622367 -0.0204337 2.80398e-20)
(-0.0610995 -0.0426153 -2.70387e-20)
(-0.0518623 -0.0672141 -1.86285e-20)
(-0.0365521 -0.0920093 2.47553e-21)
(0.00339799 -0.108977 8.10708e-21)
(-0.0109081 0.0192691 -5.73129e-20)
(-0.0251005 0.0337406 2.74131e-20)
(-0.037759 0.0329047 2.00626e-20)
(-0.0471744 0.0232499 1.3548e-20)
(-0.052545 0.00815087 -2.48644e-20)
(-0.0524546 -0.0109295 -2.10213e-20)
(-0.0449223 -0.0336175 3.05603e-20)
(-0.0272143 -0.0592694 -2.50551e-20)
(-0.0031635 -0.086603 -1.67381e-21)
(0.0528707 -0.103041 -2.60027e-20)
(-0.0124573 0.0209731 4.82643e-20)
(-0.0275087 0.0381568 1.97345e-20)
(-0.0387753 0.0393679 1.15047e-21)
(-0.0451576 0.0309641 -2.46565e-20)
(-0.0459744 0.0164796 1.64015e-21)
(-0.0397973 -0.00242672 2.80078e-20)
(-0.0245466 -0.0252912 -8.01385e-21)
(0.00330315 -0.0514783 -9.88374e-21)
(0.0386791 -0.0818299 -2.2041e-20)
(0.112977 -0.0962813 3.96967e-20)
(-0.0138812 0.0221219 3.29953e-20)
(-0.0295921 0.0414078 -5.33329e-20)
(-0.0391289 0.0443859 -4.13934e-20)
(-0.0419313 0.0371463 1.78718e-20)
(-0.0373821 0.0233273 3.67871e-20)
(-0.0239742 0.00477327 3.17192e-20)
(0.00052156 -0.0179525 -3.38728e-20)
(0.0400304 -0.044014 6.56846e-20)
(0.0894799 -0.0772747 -2.00808e-20)
(0.185328 -0.088761 -4.66271e-20)
(-0.0151304 0.0227184 -4.93296e-20)
(-0.0312431 0.0434433 2.97593e-20)
(-0.0386876 0.0478352 -1.45269e-20)
(-0.0373373 0.0416056 1.51979e-21)
(-0.0265726 0.0284431 1.56732e-20)
(-0.00475506 0.0103573 -4.99386e-20)
(0.0306568 -0.0118931 4.47421e-20)
(0.083602 -0.0372813 -4.36033e-20)
(0.149389 -0.0726282 7.02316e-20)
(0.269232 -0.0798774 2.49794e-20)
(-0.0161687 0.0227912 1.06051e-20)
(-0.032364 0.0442591 5.82736e-20)
(-0.037316 0.0496458 -1.47996e-20)
(-0.0311999 0.0442059 1.49945e-20)
(-0.0133159 0.0316304 1.77816e-20)
(0.0181637 0.014088 -5.39198e-21)
(0.0661337 -0.0073739 3.86478e-20)
(0.134388 -0.031628 1.94371e-21)
(0.219198 -0.0679944 -4.49419e-20)
(0.362529 -0.0691965 5.99484e-20)
(-0.0169732 0.0223903 -2.82038e-20)
(-0.0328643 0.0438973 -5.53033e-20)
(-0.0348635 0.0498087 4.81292e-20)
(-0.0233036 0.0448838 2.43435e-20)
(0.00268252 0.0327837 -1.13617e-19)
(0.0451674 0.0158262 9.33616e-20)
(0.107427 -0.00458242 -8.50133e-20)
(0.192585 -0.0272047 1.35685e-21)
(0.29955 -0.0629371 -1.92113e-20)
(0.461687 -0.056734 -5.52005e-20)
(-0.0175324 0.021582 2.45645e-20)
(-0.0326558 0.042442 -3.36875e-21)
(-0.0311498 0.0483801 -1.1826e-20)
(-0.0133631 0.0436694 -1.31286e-21)
(0.0218289 0.0319303 -7.10413e-21)
(0.0767866 0.0156186 -2.97576e-20)
(0.155154 -0.00341264 1.27909e-20)
(0.258572 -0.0240953 -2.02326e-20)
(0.390458 -0.0561841 6.25482e-21)
(0.561745 -0.0425273 1.69181e-21)
(-0.0178412 0.0204399 -5.01699e-20)
(-0.0316406 0.0400086 -3.66034e-21)
(-0.0259501 0.0454816 5.51312e-21)
(-0.00100051 0.0406968 2.2467e-21)
(0.0446767 0.029245 3.73126e-20)
(0.113742 0.0137262 -1.09588e-19)
(0.210067 -0.00346037 7.44028e-20)
(0.333004 -0.0220454 -5.58186e-20)
(0.490811 -0.0459558 4.66767e-20)
(0.657604 -0.0273938 5.04705e-20)
(-0.0178941 0.0190366 -6.1243e-21)
(-0.0297001 0.0367335 2.79483e-20)
(-0.0189808 0.0412948 -3.52157e-20)
(0.0142687 0.0362016 -1.1081e-20)
(0.0719296 0.0250544 2.14837e-20)
(0.156911 0.010626 1.04193e-19)
(0.272896 -0.00407373 -2.10493e-20)
(0.416496 -0.0201186 1.03855e-20)
(0.597735 -0.0311936 -5.41685e-20)
(0.74762 -0.0160545 2.35243e-20)
(-0.0176779 0.0174363 -1.83693e-20)
(-0.0266856 0.032764 -1.42726e-20)
(-0.00989224 0.0360492 3.49183e-21)
(0.0330307 0.0305119 1.3953e-20)
(0.104405 0.0198275 -4.1516e-20)
(0.207214 0.00698715 -1.69239e-20)
(0.344127 -0.00442912 -5.34783e-20)
(0.508708 -0.0166514 5.49462e-20)
(0.705747 -0.0139389 5.74393e-20)
(0.835825 -0.015945 -2.42702e-20)
(-0.0171634 0.0156894 -8.73849e-21)
(-0.0224105 0.0282474 3.56439e-20)
(0.00172828 0.03001 -4.00061e-20)
(0.0559477 0.0240344 -4.67675e-21)
(0.142954 0.0141536 -1.89828e-20)
(0.265427 0.00362657 4.16855e-20)
(0.423763 -0.00358759 5.40802e-20)
(0.607541 -0.0101475 -5.15582e-20)
(0.8079 0.00016935 5.39644e-20)
(0.94936 -0.00993467 7.0614e-21)
(-0.0162993 0.0138302 -2.53135e-20)
(-0.0166467 0.0233244 -7.21193e-20)
(0.0163433 0.0234659 7.05176e-20)
(0.083711 0.0172347 1.01961e-20)
(0.188352 0.00870818 1.50866e-20)
(0.33194 0.00143425 8.93405e-21)
(0.51098 -0.000622155 4.09968e-20)
(0.709214 -0.000453737 3.00717e-20)
(0.906597 0.0138735 -1.0558e-19)
(1.04839 0.0075717 -5.06099e-20)
(-0.0150091 0.0118785 -8.67013e-20)
(-0.00912678 0.0181264 1.74884e-20)
(0.0344418 0.0167192 -3.97922e-20)
(0.116976 0.0106169 7.80539e-21)
(0.241158 0.00421199 1.26035e-20)
(0.406538 0.00127779 -9.052e-20)
(0.603875 0.0052005 3.97748e-20)
(0.809859 0.0120997 -2.69487e-20)
(0.997926 0.0292085 2.81153e-20)
(1.12733 0.0261229 -9.59006e-21)
(-0.0131912 0.00984347 3.1344e-20)
(0.000447264 0.0127786 3.37966e-20)
(0.0565081 0.0100806 -1.87476e-21)
(0.156286 0.00470455 -1.09435e-20)
(0.301572 0.00138478 4.98335e-22)
(0.488237 0.00388741 9.86502e-22)
(0.699586 0.0142275 -6.06436e-20)
(0.905746 0.0270592 7.73482e-21)
(1.07839 0.0456593 7.42171e-20)
(1.19144 0.0448751 3.31048e-20)
(-0.0107224 0.00773056 -2.12086e-20)
(0.0123895 0.00740773 -1.57718e-20)
(0.0829855 0.00386822 6.76991e-20)
(0.201999 2.55877e-05 1.73266e-21)
(0.369309 0.000893961 -2.83841e-20)
(0.575246 0.00974799 7.67969e-20)
(0.794742 0.0263789 1.67497e-20)
(0.993687 0.0438064 7.63222e-22)
(1.14676 0.0627051 -3.26104e-20)
(1.24028 0.0630206 -4.17526e-20)
(-0.00746391 0.00554968 4.42485e-20)
(0.0270134 0.00215155 -1.23875e-20)
(0.114237 -0.00158881 -7.36989e-21)
(0.254212 -0.00290032 -2.81134e-20)
(0.44352 0.00329768 4.64311e-20)
(0.665119 0.0190341 -2.28288e-20)
(0.886043 0.0412436 -2.56081e-20)
(1.07157 0.0617067 -6.17271e-21)
(1.20271 0.0798254 -1.85817e-20)
(1.27669 0.0801473 1.99954e-20)
(-0.00326927 0.00332217 -1.63145e-20)
(0.0446123 -0.0028296 -9.68477e-20)
(0.150511 -0.00594413 1.01226e-20)
(0.312706 -0.0035766 3.49414e-20)
(0.522799 0.00898689 2.50916e-20)
(0.755076 0.031616 -8.36268e-20)
(0.970757 0.0582449 5.35075e-20)
(1.13835 0.0801986 -2.43422e-20)
(1.24701 0.0966455 3.64229e-20)
(1.30264 0.0962532 9.91647e-21)
(0.00200691 0.00108737 -1.78282e-20)
(0.0654369 -0.00734256 3.44021e-20)
(0.191901 -0.00883071 4.48436e-20)
(0.376907 -0.00155251 -3.2277e-20)
(0.605277 0.0181433 1.20092e-20)
(0.842393 0.0471344 -7.35474e-20)
(1.04699 0.0767851 -1.39173e-20)
(1.19396 0.0988486 1.14772e-20)
(1.28092 0.112958 -2.77021e-20)
(1.32033 0.111378 -2.78872e-20)
(0.0085007 -0.00109339 -2.29867e-20)
(0.0896762 -0.0111559 -7.72648e-21)
(0.238322 -0.00986302 -8.11849e-20)
(0.445885 0.00354489 -1.273e-20)
(0.688816 0.0307332 -1.43524e-21)
(0.924742 0.0651083 4.33736e-21)
(1.11372 0.0963342 7.69724e-21)
(1.23899 0.117359 -3.59592e-20)
(1.30597 0.12868 6.51132e-22)
(1.33159 0.125684 1.92617e-20)
(0.0163309 -0.00313533 -5.97758e-21)
(0.117437 -0.013999 2.81639e-20)
(0.289479 -0.00864848 3.96571e-20)
(0.518384 0.0119758 2.48218e-20)
(0.771249 0.0465423 -7.39942e-21)
(1.00038 0.0850303 -6.07888e-21)
(1.17066 0.116467 6.04734e-20)
(1.27442 0.135549 7.97964e-21)
(1.32367 0.143822 2.69898e-20)
(1.33794 0.139333 -1.15813e-20)
(0.025592 -0.00493103 5.71708e-20)
(0.148728 -0.0155679 3.71068e-20)
(0.344859 -0.00480916 -3.7611e-20)
(0.592914 0.0238627 -7.49451e-21)
(0.850595 0.0652364 3.89116e-21)
(1.06819 0.106428 -1.42667e-20)
(1.21808 0.136869 -3.09539e-20)
(1.30145 0.153335 -5.18503e-21)
(1.3354 0.158449 4.22768e-22)
(1.3406 0.152493 1.25276e-20)
(0.0363476 -0.0063532 6.98043e-21)
(0.183442 -0.0155354 -2.02151e-20)
(0.403735 0.00198898 4.78589e-20)
(0.667866 0.0391862 3.1212e-20)
(0.925219 0.0864228 9.05495e-22)
(1.12764 0.128895 2.21903e-20)
(1.25659 0.157319 3.29162e-21)
(1.32127 0.170699 -2.33668e-20)
(1.34236 0.172657 1.97152e-20)
(1.34046 0.165307 -2.7191e-23)
(0.0486247 -0.00725891 -4.70065e-20)
(0.221347 -0.013568 -1.38643e-20)
(0.465187 0.0120059 -1.25646e-20)
(0.741643 0.057802 -2.18714e-20)
(0.993898 0.109697 5.10057e-21)
(1.17863 0.152098 1.22691e-22)
(1.28702 0.177677 1.70176e-20)
(1.33503 0.187667 -2.70691e-21)
(1.34555 0.186547 -2.02772e-20)
(1.3382 0.177889 -1.88275e-20)
(0.0624092 -0.00749479 3.80762e-21)
(0.262085 -0.00934408 2.23987e-20)
(0.52815 0.0254039 1.08431e-20)
(0.812781 0.0794708 -3.39749e-20)
(1.05582 0.134674 -1.74097e-21)
(1.2214 0.175769 -1.46265e-20)
(1.31026 0.197859 3.80008e-22)
(1.34374 0.204288 6.89516e-21)
(1.34574 0.200209 -7.62377e-21)
(1.33428 0.190324 2.12358e-20)
(0.0776417 -0.00690305 8.92176e-21)
(0.305173 -0.00257515 -2.18841e-20)
(0.591477 0.0422358 -5.17274e-20)
(0.880021 0.103891 4.76985e-20)
(1.11053 0.160999 -3.57337e-21)
(1.25638 0.199703 1.05813e-20)
(1.32719 0.217824 -1.4612e-21)
(1.34827 0.220616 1.01653e-20)
(1.34353 0.213719 -7.64379e-22)
(1.32901 0.202661 -1.64515e-20)
(0.0942155 -0.00532807 -1.81569e-20)
(0.350017 0.00697481 2.84368e-20)
(0.654005 0.0624462 2.35275e-20)
(0.942357 0.130723 -3.39658e-20)
(1.15787 0.188351 -5.63034e-21)
(1.28415 0.223739 2.15635e-21)
(1.33863 0.237551 2.16094e-20)
(1.34931 0.236704 1.09599e-21)
(1.33935 0.22713 4.20134e-21)
(1.32261 0.214927 -9.06239e-21)
(0.111977 -0.00262333 1.37737e-20)
(0.395934 0.0194728 -1.24035e-20)
(0.714619 0.0858817 -1.05572e-20)
(0.99904 0.159613 1.81415e-20)
(1.1979 0.216448 6.28059e-21)
(1.30531 0.24775 4.74785e-21)
(1.34533 0.257035 -2.19917e-20)
(1.34745 0.252591 -7.53312e-21)
(1.33352 0.24047 -6.7496e-21)
(1.31519 0.227121 2.9808e-21)
(0.130726 0.0013415 -6.84973e-21)
(0.442176 0.0350053 -1.59077e-22)
(0.772301 0.112307 1.99788e-20)
(1.04956 0.190202 -7.33896e-21)
(1.23084 0.245032 -3.2405e-21)
(1.32048 0.271632 -2.13761e-21)
(1.3479 0.276267 5.31584e-21)
(1.3431 0.268298 9.18933e-21)
(1.32625 0.253746 -2.89129e-22)
(1.30684 0.239224 3.35083e-21)
(0.150222 0.0066737 4.82536e-21)
(0.487967 0.0535721 -1.35399e-21)
(0.826168 0.141421 -3.57342e-21)
(1.09359 0.222132 -3.24045e-21)
(1.25698 0.273874 2.92493e-21)
(1.33025 0.295296 2.28325e-21)
(1.34687 0.295234 -2.10667e-21)
(1.3366 0.283826 7.65517e-22)
(1.31769 0.266939 1.07447e-21)
(1.2976 0.251198 -1.42771e-21)
(0.170191 0.0134513 2.58301e-21)
(0.532527 0.0750863 7.37034e-22)
(0.875484 0.172874 -4.41986e-21)
(1.13101 0.255053 -3.53083e-21)
(1.27671 0.302761 3.68363e-21)
(1.33514 0.318656 7.20567e-22)
(1.34269 0.313911 -1.68417e-21)
(1.32821 0.299159 1.58354e-21)
(1.30792 0.280011 8.84212e-22)
(1.2875 0.262993 -1.01672e-21)
(0.190328 0.0217182 -1.01259e-21)
(0.575109 0.099378 2.06044e-21)
(0.919671 0.206282 1.35997e-20)
(1.1618 0.288623 -6.04977e-21)
(1.29041 0.331494 -2.97373e-21)
(1.33563 0.341627 -3.3521e-21)
(1.33571 0.332257 6.86811e-21)
(1.31808 0.314256 4.60354e-21)
(1.29701 0.292902 3.68316e-21)
(1.27655 0.274552 2.00571e-21)
(0.210315 0.0314805 2.06573e-20)
(0.615019 0.126203 -1.13641e-20)
(0.958297 0.241234 -1.29622e-20)
(1.18606 0.322509 1.76082e-20)
(1.29848 0.359882 9.2666e-21)
(1.33214 0.364118 -6.19446e-22)
(1.32619 0.350217 -1.14542e-20)
(1.30636 0.329059 -8.27265e-21)
(1.28499 0.305537 -8.63207e-21)
(1.26476 0.285806 5.13487e-21)
(0.229821 0.0427047 -2.79296e-20)
(0.651635 0.155251 2.62556e-20)
(0.991068 0.277307 3.01948e-20)
(1.20395 0.356388 -2.97822e-20)
(1.30132 0.387741 -1.03213e-20)
(1.32503 0.386032 6.62137e-21)
(1.31436 0.367721 1.20493e-20)
(1.29313 0.34349 1.89502e-21)
(1.27188 0.317822 -3.35063e-22)
(1.25212 0.29668 -7.00916e-21)
(0.248521 0.0553176 -3.99487e-21)
(0.684423 0.186158 -3.6887e-20)
(1.01781 0.314069 -3.9506e-20)
(1.2157 0.389944 4.43133e-20)
(1.29931 0.414889 -5.02995e-21)
(1.31462 0.407265 9.23581e-21)
(1.30041 0.384686 1.82166e-21)
(1.27845 0.357464 -5.15146e-21)
(1.25766 0.329665 2.76312e-21)
(1.23852 0.307099 -3.75036e-22)
(0.266096 0.0692082 8.12898e-21)
(0.712945 0.218518 2.2821e-20)
(1.03846 0.351087 1.29515e-20)
(1.22158 0.422874 -1.02001e-20)
(1.2928 0.441144 -1.58095e-20)
(1.30119 0.427702 -1.47674e-20)
(1.28447 0.401016 -2.98644e-21)
(1.26237 0.370896 7.93609e-21)
(1.24232 0.341005 -1.67404e-21)
(1.22378 0.316992 3.8765e-21)
(0.28225 0.0842302 -3.06599e-20)
(0.736861 0.251892 -2.86212e-20)
(1.05305 0.387928 -4.51952e-21)
(1.22187 0.454884 -5.11535e-21)
(1.28212 0.466326 -1.16248e-20)
(1.28498 0.447218 7.13315e-21)
(1.26668 0.416605 -1.29404e-21)
(1.24495 0.383697 -6.98116e-21)
(1.22589 0.35184 6.33199e-21)
(1.20788 0.326276 -9.17462e-21)
(0.296712 0.100206 7.34668e-21)
(0.755933 0.285826 2.4248e-20)
(1.06166 0.424172 2.10564e-20)
(1.21688 0.485687 2.28982e-20)
(1.26759 0.490255 4.74934e-22)
(1.26619 0.465682 2.00507e-20)
(1.24712 0.431332 1.32406e-21)
(1.22624 0.395747 -2.37287e-20)
(1.20841 0.362139 1.70418e-20)
(1.19127 0.334828 6.33094e-21)
(0.309246 0.116929 1.98349e-20)
(0.770016 0.319858 4.42477e-20)
(1.06446 0.459409 -5.8771e-21)
(1.20694 0.515012 -2.87998e-20)
(1.24951 0.512753 1.3011e-20)
(1.24501 0.482961 -1.35596e-20)
(1.22591 0.44507 -1.81195e-20)
(1.20634 0.406927 -1.56696e-21)
(1.18987 0.371657 -1.41537e-20)
(1.17407 0.342727 5.51609e-21)
(0.319654 0.134172 9.28294e-21)
(0.779052 0.353527 6.82752e-21)
(1.06168 0.493246 5.51183e-20)
(1.19238 0.542594 1.03447e-20)
(1.22817 0.533647 -9.02193e-21)
(1.22164 0.498912 -4.65178e-21)
(1.20321 0.457688 2.77157e-20)
(1.18526 0.417148 2.28741e-20)
(1.17028 0.380286 1.14343e-20)
(1.15617 0.349781 -1.56052e-21)
(0.327781 0.151692 1.95185e-21)
(0.783058 0.386383 -4.51813e-20)
(1.05357 0.525306 -6.47641e-20)
(1.17355 0.568185 2.01979e-21)
(1.20384 0.552765 1.28078e-20)
(1.19627 0.513383 -1.76979e-20)
(1.17911 0.469058 -4.05863e-20)
(1.16304 0.4263 -1.21469e-20)
(1.14976 0.387921 -7.39113e-22)
(1.13754 0.355906 5.95024e-21)
(0.333515 0.169239 -1.60797e-20)
(0.78213 0.417991 4.04975e-20)
(1.04046 0.555242 3.8886e-20)
(1.15077 0.591547 -3.5917e-20)
(1.17678 0.569928 5.48747e-21)
(1.16909 0.526238 4.28133e-20)
(1.15367 0.479055 -9.58989e-21)
(1.13976 0.434269 8.10986e-21)
(1.12838 0.394469 -3.98942e-21)
(1.11822 0.361013 -5.37316e-21)
(0.336785 0.186554 -3.61216e-20)
(0.77644 0.447933 -6.38741e-20)
(1.02273 0.582751 -1.25396e-20)
(1.12435 0.612449 2.05904e-20)
(1.14726 0.584967 2.02876e-20)
(1.14024 0.537322 -4.26673e-20)
(1.12703 0.487558 2.34285e-20)
(1.11552 0.440947 -1.24708e-20)
(1.1062 0.399834 1.01994e-20)
(1.09828 0.365037 2.73416e-22)
(0.337573 0.203381 2.75595e-20)
(0.766245 0.475799 1.96183e-21)
(1.00073 0.607564 -6.1344e-21)
(1.09454 0.630678 -2.54997e-20)
(1.11553 0.597706 1.66119e-20)
(1.10992 0.546498 3.55658e-21)
(1.0993 0.494445 -1.34993e-20)
(1.09042 0.44623 2.26171e-21)
(1.0833 0.403923 -2.82113e-21)
(1.07782 0.367902 1.6335e-21)
(0.335929 0.219477 -7.52636e-21)
(0.751879 0.501254 -1.05162e-20)
(0.974544 0.6293 2.68644e-20)
(1.06181 0.646116 1.25248e-20)
(1.08192 0.607978 -1.71925e-20)
(1.0783 0.55364 2.45158e-20)
(1.07064 0.499607 1.75629e-21)
(1.06456 0.450022 1.9807e-21)
(1.05978 0.406636 -3.86992e-22)
(1.05692 0.369516 6.75689e-23)
(0.33195 0.234586 4.87897e-20)
(0.733646 0.524173 3.76827e-20)
(0.944387 0.647598 -2.63189e-21)
(1.02659 0.658484 -5.89019e-21)
(1.04667 0.615697 -7.01885e-21)
(1.04559 0.558638 -3.4892e-21)
(1.04117 0.502942 1.83168e-21)
(1.03806 0.45224 1.79187e-21)
(1.03573 0.407881 8.09601e-22)
(1.03565 0.369781 -2.18766e-21)
(0.325716 0.248344 3.99499e-21)
(0.711611 0.544205 6.51038e-21)
(0.911113 0.662615 -3.49805e-20)
(0.989301 0.667545 1.56345e-20)
(1.01005 0.620735 4.47593e-21)
(1.01197 0.56139 -1.01707e-20)
(1.01106 0.504362 3.45337e-21)
(1.01102 0.452811 1.11985e-21)
(1.01126 0.407588 -3.01029e-21)
(1.01424 0.368648 3.03524e-21)
(0.317206 0.260508 -1.85041e-20)
(0.685975 0.560753 -1.34626e-20)
(0.875249 0.674072 1.13055e-20)
(0.950203 0.673313 3.09841e-21)
(0.972312 0.622996 -6.09515e-21)
(0.977633 0.561802 5.7507e-21)
(0.980425 0.503776 1.85611e-21)
(0.983551 0.451645 -5.80036e-21)
(0.98665 0.405693 1.71842e-20)
(0.993365 0.366155 7.28841e-21)
(0.306656 0.270893 -1.42368e-20)
(0.657359 0.573656 3.57054e-20)
(0.837071 0.681733 -2.28766e-20)
(0.909634 0.675696 -3.2357e-21)
(0.933718 0.622398 -4.20096e-21)
(0.942768 0.559797 4.85249e-22)
(0.949385 0.501102 -6.10916e-21)
(0.955765 0.448604 3.31329e-21)
(0.962304 0.401994 3.27361e-23)
(0.973768 0.362343 -3.03865e-21)
(0.294308 0.279453 -1.05598e-21)
(0.626189 0.582793 -1.05881e-20)
(0.79699 0.685421 5.93934e-21)
(0.867942 0.674614 -3.37681e-21)
(0.894531 0.618882 3.46555e-21)
(0.907559 0.555326 4.18805e-21)
(0.918062 0.496295 1.24788e-20)
(0.927852 0.443587 -9.83539e-21)
(0.938584 0.396103 -1.89108e-20)
(0.954721 0.356515 8.51911e-21)
(0.280307 0.285994 8.87187e-23)
(0.59291 0.588034 -1.85163e-21)
(0.755428 0.685042 8.76441e-22)
(0.825475 0.670005 4.32366e-21)
(0.855016 0.61241 -9.42064e-21)
(0.872202 0.548362 -1.69561e-20)
(0.886645 0.489358 -4.93579e-21)
(0.900088 0.436725 -1.73803e-21)
(0.915459 0.388223 2.63678e-20)
(0.933267 0.34483 -5.38888e-21)
(0.264874 0.290374 -1.44527e-21)
(0.557958 0.589275 -4.47435e-21)
(0.712816 0.680547 9.88033e-22)
(0.782584 0.661836 9.82257e-22)
(0.81544 0.602956 -7.81405e-21)
(0.836915 0.53888 3.32024e-20)
(0.855396 0.480263 -2.37107e-20)
(0.872694 0.428112 2.84694e-20)
(0.891804 0.380333 -1.9957e-20)
(0.909277 0.33844 -2.66807e-20)
(0.248256 0.292486 -1.98745e-22)
(0.521762 0.586444 -1.51948e-21)
(0.669576 0.671923 7.04802e-22)
(0.739613 0.650099 1.22028e-20)
(0.776069 0.590515 -5.40552e-21)
(0.801926 0.526862 8.17195e-21)
(0.824524 0.468955 1.38245e-20)
(0.845704 0.417456 -7.29886e-21)
(0.868059 0.370197 -1.96558e-20)
(0.886533 0.328563 2.7031e-20)
(0.230706 0.292253 9.71515e-21)
(0.484751 0.57951 1.27127e-20)
(0.626127 0.659184 -1.25754e-20)
(0.696901 0.634816 -1.10325e-20)
(0.737167 0.575102 4.03138e-20)
(0.767453 0.512323 -4.10952e-20)
(0.794176 0.455487 4.96291e-20)
(0.819123 0.404995 -1.23824e-20)
(0.844423 0.358819 1.33006e-20)
(0.86457 0.318364 2.50499e-20)
(0.212484 0.289627 -3.41002e-21)
(0.447352 0.568477 -1.27263e-20)
(0.582877 0.642377 -8.19362e-21)
(0.654781 0.616034 -4.3491e-21)
(0.699 0.556753 5.33572e-21)
(0.733716 0.495288 -1.10088e-20)
(0.764526 0.439862 -1.48144e-20)
(0.793117 0.390661 -3.26442e-20)
(0.821244 0.345813 3.24475e-20)
(0.843474 0.306735 -1.03797e-20)
(0.193852 0.284587 2.49392e-20)
(0.409985 0.553388 -3.17016e-21)
(0.54022 0.621578 -1.15144e-20)
(0.613575 0.593823 1.46081e-20)
(0.661824 0.535524 -2.60697e-20)
(0.700924 0.475803 7.0302e-20)
(0.73574 0.422133 -3.75205e-20)
(0.76785 0.374538 3.40402e-20)
(0.798739 0.331327 -6.2458e-20)
(0.823266 0.293813 -1.65992e-20)
(0.17507 0.277142 -7.60592e-21)
(0.373058 0.534323 2.64856e-20)
(0.498541 0.596891 6.13369e-21)
(0.573596 0.568279 -1.36412e-20)
(0.625889 0.511493 -2.35822e-20)
(0.669284 0.45393 -7.05667e-22)
(0.707989 0.40235 1.25143e-20)
(0.743486 0.356657 -3.07652e-20)
(0.777065 0.315338 1.50705e-20)
(0.803987 0.279535 1.98589e-21)
(0.156395 0.267327 -4.38014e-20)
(0.336969 0.511395 -1.07227e-20)
(0.458207 0.568451 -3.00642e-21)
(0.535142 0.53952 3.54438e-20)
(0.591437 0.484756 -3.30136e-20)
(0.638994 0.429749 -8.50572e-21)
(0.681442 0.380585 -5.22766e-21)
(0.720184 0.33708 9.59874e-21)
(0.756361 0.297888 -1.22305e-20)
(0.785704 0.263935 -1.90409e-20)
(0.138078 0.255203 3.89967e-20)
(0.302098 0.484752 -2.22081e-20)
(0.419567 0.536418 1.0481e-21)
(0.498499 0.507687 -5.38701e-20)
(0.558699 0.455428 5.84626e-20)
(0.610247 0.403358 -1.8486e-20)
(0.656266 0.356919 1.10718e-20)
(0.698089 0.315873 9.62842e-21)
(0.736751 0.279022 2.79319e-20)
(0.76849 0.247063 -1.15188e-20)
(0.120362 0.240858 -1.58521e-20)
(0.268805 0.454571 4.61272e-20)
(0.382952 0.50098 2.60171e-20)
(0.463936 0.472942 4.26596e-20)
(0.527893 0.423646 -9.84755e-21)
(0.583226 0.37487 3.98147e-21)
(0.632616 0.331451 3.20097e-20)
(0.67734 0.293118 7.16085e-21)
(0.718348 0.258804 6.90708e-22)
(0.752421 0.228985 -1.37921e-20)
(0.103475 0.224401 -3.6728e-20)
(0.23743 0.42106 -2.68216e-21)
(0.34867 0.462349 -1.53106e-20)
(0.431707 0.435469 -6.87736e-20)
(0.499226 0.38956 -6.64754e-20)
(0.558105 0.344413 1.1087e-20)
(0.610642 0.30429 -2.73103e-20)
(0.658065 0.268905 1.7473e-20)
(0.701262 0.23731 9.48993e-21)
(0.737571 0.209781 1.97699e-20)
(0.0876352 0.205965 5.40842e-20)
(0.208287 0.384455 -4.42524e-20)
(0.31701 0.420759 -2.24811e-20)
(0.402044 0.395468 3.97814e-20)
(0.472889 0.353339 4.52853e-20)
(0.535045 0.31213 -1.50405e-20)
(0.590481 0.275558 -1.95668e-21)
(0.640383 0.243337 -5.43331e-20)
(0.685596 0.21463 -3.07282e-20)
(0.724012 0.189541 1.17326e-20)
(0.0730425 0.185703 -3.07869e-20)
(0.181667 0.345013 1.29679e-20)
(0.288231 0.376465 4.77074e-20)
(0.375163 0.353158 -2.14294e-20)
(0.449059 0.315167 1.70661e-21)
(0.514194 0.278178 6.05607e-20)
(0.57226 0.24539 2.77346e-21)
(0.624405 0.21653 5.21013e-20)
(0.671444 0.190864 2.17288e-20)
(0.711811 0.16836 -3.45657e-20)
(0.0598799 0.163787 4.27248e-20)
(0.157829 0.303019 4.74103e-21)
(0.262571 0.329743 3.10908e-21)
(0.351258 0.308776 4.35889e-20)
(0.427895 0.275242 -5.8021e-21)
(0.495688 0.242725 -3.80175e-20)
(0.556095 0.213931 1.8625e-20)
(0.610231 0.188608 -2.97834e-20)
(0.658894 0.166119 -1.24451e-20)
(0.70103 0.146339 1.25832e-20)
(0.0483108 0.140405 -2.66418e-20)
(0.137008 0.258774 -5.12088e-20)
(0.240239 0.280884 1.18388e-20)
(0.330499 0.26257 -2.31781e-20)
(0.409538 0.233775 -1.39909e-20)
(0.479647 0.205951 3.39322e-20)
(0.54209 0.181335 -8.21023e-21)
(0.597953 0.159702 7.57433e-21)
(0.648025 0.140515 -9.23064e-21)
(0.691722 0.123587 1.83398e-20)
(0.0384779 0.115761 9.65633e-21)
(0.119403 0.212599 3.45029e-20)
(0.221416 0.230195 -4.79361e-20)
(0.313037 0.214803 2.26543e-20)
(0.394113 0.190985 -1.03287e-20)
(0.466175 0.168045 -2.90736e-20)
(0.530333 0.147765 2.37497e-20)
(0.587648 0.129955 4.9785e-21)
(0.638906 0.114173 -7.64353e-22)
(0.683936 0.100212 -2.1324e-20)
(0.0305014 0.0900712 3.16492e-21)
(0.105184 0.16483 1.11269e-20)
(0.206255 0.177995 4.33924e-20)
(0.298996 0.165748 -8.32672e-21)
(0.381722 0.147105 -6.56477e-21)
(0.45536 0.129206 2.42641e-21)
(0.520901 0.113392 1.08098e-21)
(0.579384 0.0995117 8.87075e-21)
(0.631596 0.0872228 -1.16668e-20)
(0.677713 0.0763275 -7.42284e-21)
(0.0244786 0.0635607 -7.90663e-21)
(0.0944872 0.115812 -1.35415e-20)
(0.194877 0.124616 -3.37494e-20)
(0.288476 0.115686 1.6986e-20)
(0.372449 0.102373 1.38553e-20)
(0.447274 0.089636 5.87981e-22)
(0.513855 0.0783905 -2.31872e-20)
(0.573215 0.0685255 -1.03065e-20)
(0.626144 0.0597979 8.16934e-21)
(0.673084 0.0520463 8.75296e-21)
(0.0204827 0.0364643 1.37502e-21)
(0.0874148 0.0659058 -2.83707e-21)
(0.187374 0.0703964 6.40771e-21)
(0.281553 0.064907 -4.34071e-21)
(0.366357 0.0570341 -3.82899e-21)
(0.44197 0.0495464 -2.59729e-21)
(0.50924 0.042942 4.77221e-21)
(0.569181 0.0371525 1.81942e-20)
(0.622584 0.0320342 2.63619e-21)
(0.670072 0.0274802 -4.67713e-21)
(0.0185621 0.00902205 1.70039e-21)
(0.0840345 0.0154738 -4.67846e-21)
(0.183807 0.0156797 -5.3035e-21)
(0.278278 0.0137044 -3.68027e-21)
(0.363488 0.0113362 3.50612e-21)
(0.439483 0.00915008 1.58259e-21)
(0.507088 0.00723058 -1.57756e-21)
(0.56731 0.00555338 -7.19353e-21)
(0.62094 0.00407721 2.3699e-21)
(0.668685 0.00277161 -2.21815e-21)
(0.0187404 -0.0185225 -1.6975e-21)
(0.0843791 -0.035115 4.67124e-21)
(0.184206 -0.0391857 5.29712e-21)
(0.278675 -0.0376249 -5.07243e-21)
(0.363861 -0.0344686 4.4676e-21)
(0.43983 -0.0313372 2.23861e-21)
(0.507413 -0.0285585 -3.57696e-21)
(0.567617 -0.0261123 -4.16093e-21)
(0.621234 -0.0239375 6.14642e-22)
(0.668973 -0.0219851 -1.73464e-21)
(0.0210158 -0.0459247 1.8615e-21)
(0.0884463 -0.0854908 -5.56465e-21)
(0.188569 -0.0938507 1.2465e-20)
(0.282741 -0.0887833 -1.0949e-20)
(0.367475 -0.0801281 -5.17679e-22)
(0.443011 -0.0716993 -7.29111e-21)
(0.510214 -0.0642394 1.18584e-20)
(0.570098 -0.0576844 1.61398e-20)
(0.623453 -0.0518732 2.8884e-21)
(0.670891 -0.0466922 -6.22238e-21)
(0.0253611 -0.0729413 -1.59489e-21)
(0.0961987 -0.135285 -1.17555e-20)
(0.196862 -0.147968 -2.73513e-20)
(0.29045 -0.139474 2.36855e-20)
(0.374307 -0.125391 4.88786e-21)
(0.449006 -0.111721 4.3278e-21)
(0.515475 -0.0996259 -2.13291e-20)
(0.57474 -0.0890005 -1.25854e-20)
(0.627587 -0.0795831 -2.80305e-21)
(0.674438 -0.0712048 1.92216e-20)
(0.0317242 -0.0993326 -5.62132e-21)
(0.107564 -0.184135 7.07514e-21)
(0.209021 -0.201192 4.9558e-20)
(0.301749 -0.189404 -4.45306e-21)
(0.384314 -0.170008 -1.2743e-20)
(0.457776 -0.151188 9.15375e-21)
(0.523162 -0.134535 6.30607e-22)
(0.581513 -0.119902 3.23369e-21)
(0.63361 -0.106929 -7.08337e-21)
(0.679603 -0.0954105 -1.87443e-20)
(0.0400285 -0.124865 -3.79362e-21)
(0.122435 -0.231683 2.06444e-20)
(0.224949 -0.253187 -4.98683e-20)
(0.316557 -0.238285 2.16167e-20)
(0.397429 -0.213737 2.03777e-22)
(0.469267 -0.189892 -2.74629e-20)
(0.533227 -0.168786 1.21444e-20)
(0.590374 -0.150232 -1.13409e-21)
(0.641486 -0.133775 4.61618e-21)
(0.686359 -0.119198 -1.39175e-21)
(0.0501731 -0.149314 -4.34325e-20)
(0.140672 -0.277582 -5.19389e-20)
(0.24452 -0.303622 1.36251e-20)
(0.334772 -0.285835 -2.47625e-20)
(0.413566 -0.256338 -7.00785e-21)
(0.483405 -0.22763 1.04626e-20)
(0.545609 -0.202204 3.88383e-21)
(0.601268 -0.179841 1.44547e-20)
(0.651163 -0.159988 -3.11386e-21)
(0.694672 -0.142452 1.67913e-20)
(0.0620342 -0.172463 4.15373e-20)
(0.162101 -0.321499 2.67032e-20)
(0.267579 -0.352179 -2.02126e-20)
(0.356265 -0.331783 3.40594e-20)
(0.43262 -0.297583 -2.9167e-21)
(0.500099 -0.264205 -3.69173e-20)
(0.560228 -0.234619 6.47941e-21)
(0.614126 -0.208581 -3.93203e-20)
(0.662583 -0.185439 1.51165e-21)
(0.704502 -0.165061 1.42974e-20)
(0.0754659 -0.194112 -3.08261e-20)
(0.186515 -0.363114 5.52354e-20)
(0.29394 -0.398552 2.1676e-20)
(0.380884 -0.375869 -2.68563e-20)
(0.454464 -0.33725 2.33445e-22)
(0.519244 -0.299429 6.80332e-20)
(0.576993 -0.265871 3.10395e-21)
(0.628868 -0.236314 3.02454e-20)
(0.675674 -0.210007 3.68665e-20)
(0.715798 -0.186916 -2.06846e-20)
(0.0903013 -0.214074 1.72733e-20)