/*--------------------------------*- C++ -*----------------------------------*\
  =========                 |
  \\      /  F ield         | OpenFOAM: The Open Source CFD Toolbox
   \\    /   O peration     | Website:  https://openfoam.org
    \\  /    A nd           | Version:  7
     \\/     M anipulation  |
\*---------------------------------------------------------------------------*/
FoamFile
{
    version     2.0;
    format      ascii;
    class       volScalarField;
    location    "195";
    object      p;
}
// * * * * * * * * * * * * * * * * * * * * * * * * * * * * * * * * * * * * * //

dimensions      [0 2 -2 0 0 0 0];

internalField   nonuniform List<scalar> 
2125
(
-0.372241
-0.415425
-0.379944
-0.456953
-0.422205
-0.387521
-0.513004
-0.490257
-0.462037
-0.428859
-0.395059
-0.526181
-0.511863
-0.492286
-0.466918
-0.435435
-0.402642
-0.531675
-0.522448
-0.510663
-0.494094
-0.471636
-0.441956
-0.410342
-0.533592
-0.526609
-0.519016
-0.50952
-0.49576
-0.47622
-0.448417
-0.418231
-0.527994
-0.522052
-0.515939
-0.508516
-0.497351
-0.480685
-0.454793
-0.426309
-0.527892
-0.522925
-0.517993
-0.513243
-0.507702
-0.498915
-0.485033
-0.461008
-0.434624
-0.52743
-0.522495
-0.518315
-0.514385
-0.510915
-0.507086
-0.500469
-0.489237
-0.467043
-0.442835
-0.521735
-0.517456
-0.514068
-0.511143
-0.508899
-0.506635
-0.501985
-0.493252
-0.472805
-0.450813
-0.51631
-0.51265
-0.510059
-0.508145
-0.50709
-0.506263
-0.503398
-0.496983
-0.478359
-0.456857
-0.510995
-0.507944
-0.506148
-0.505238
-0.505337
-0.505838
-0.504614
-0.500168
-0.484835
-0.455359
-0.505631
-0.503202
-0.502189
-0.502257
-0.503455
-0.50518
-0.505472
-0.502549
-0.491442
-0.457996
-0.500072
-0.498294
-0.498035
-0.499027
-0.501245
-0.504076
-0.505735
-0.503993
-0.496628
-0.462255
-0.494197
-0.49311
-0.49356
-0.495389
-0.498514
-0.502308
-0.505133
-0.504365
-0.499733
-0.465465
-0.487924
-0.487566
-0.48866
-0.491213
-0.495097
-0.49968
-0.503429
-0.503493
-0.500701
-0.467352
-0.481212
-0.481613
-0.48327
-0.48641
-0.490876
-0.496051
-0.500473
-0.501235
-0.499658
-0.468224
-0.47407
-0.475243
-0.477369
-0.480944
-0.485801
-0.49136
-0.496215
-0.497506
-0.496834
-0.468092
-0.466555
-0.468481
-0.47098
-0.47484
-0.479912
-0.485626
-0.490687
-0.492364
-0.492566
-0.466747
-0.458761
-0.461401
-0.464169
-0.468169
-0.473279
-0.478964
-0.484013
-0.486186
-0.487114
-0.464063
-0.450816
-0.454103
-0.457042
-0.46105
-0.46605
-0.471546
-0.476455
-0.478984
-0.479054
-0.461805
-0.442868
-0.446709
-0.449727
-0.453634
-0.458403
-0.463592
-0.468263
-0.470981
-0.470769
-0.458324
-0.435075
-0.439356
-0.442369
-0.446084
-0.450529
-0.455333
-0.4597
-0.462485
-0.462361
-0.453428
-0.427587
-0.432178
-0.435113
-0.438566
-0.442625
-0.446989
-0.451009
-0.453767
-0.453892
-0.447664
-0.420539
-0.4253
-0.428091
-0.431231
-0.434861
-0.438754
-0.4424
-0.44507
-0.445524
-0.441442
-0.414039
-0.418824
-0.421418
-0.424206
-0.427383
-0.430793
-0.434053
-0.436596
-0.437407
-0.435052
-0.408159
-0.412826
-0.415176
-0.417588
-0.420301
-0.42323
-0.426102
-0.428504
-0.429665
-0.428737
-0.402936
-0.407352
-0.409421
-0.411442
-0.41369
-0.416147
-0.418643
-0.420898
-0.422389
-0.422682
-0.398372
-0.402415
-0.404172
-0.405795
-0.407587
-0.409588
-0.411721
-0.413835
-0.415625
-0.416988
-0.394433
-0.397999
-0.399422
-0.400645
-0.401991
-0.403556
-0.405342
-0.407319
-0.409373
-0.411673
-0.391058
-0.394064
-0.395137
-0.395963
-0.396874
-0.398019
-0.399471
-0.40131
-0.403586
-0.40668
-0.0185687
-0.0192346
-0.0198736
-0.0204857
-0.0210707
-0.0216287
-0.0221596
-0.0226636
-0.0231407
-0.023591
-0.0240155
-0.0193735
-0.0200547
-0.0207081
-0.0213333
-0.0219304
-0.0224994
-0.0230403
-0.0235532
-0.0240382
-0.024496
-0.0249287
-0.0208671
-0.0215732
-0.0222504
-0.0228987
-0.023518
-0.0241083
-0.0246699
-0.0252028
-0.0257074
-0.0261853
-0.0266409
-0.0229966
-0.02374
-0.0244534
-0.0251368
-0.0257903
-0.0264138
-0.0270075
-0.0275718
-0.0281072
-0.0286164
-0.0291073
-0.0257418
-0.0265333
-0.0272937
-0.0280228
-0.0287208
-0.0293877
-0.0300238
-0.0306295
-0.0312057
-0.0317565
-0.0322949
-0.0290819
-0.029933
-0.0307515
-0.0315374
-0.0322909
-0.033012
-0.033701
-0.0343587
-0.0349862
-0.0355896
-0.0361882
-0.0330174
-0.0339399
-0.0348281
-0.0356822
-0.0365022
-0.0372884
-0.0380412
-0.0387614
-0.0394509
-0.0401176
-0.0407898
-0.0375539
-0.0385601
-0.0395302
-0.0404643
-0.0413625
-0.0422253
-0.0430531
-0.0438468
-0.0446094
-0.0453511
-0.0461114
-0.0427063
-0.0438095
-0.0448743
-0.0459011
-0.0468899
-0.0478414
-0.048756
-0.0496351
-0.0504826
-0.0513114
-0.0521757
-0.0484951
-0.0497096
-0.0508831
-0.052016
-0.0531088
-0.0541619
-0.0551761
-0.0561529
-0.0570979
-0.0580271
-0.0590127
-0.0549467
-0.0562877
-0.0575848
-0.0588385
-0.0600495
-0.0612181
-0.0623456
-0.0634336
-0.0644897
-0.0655336
-0.06666
-0.0605589
-0.0620906
-0.0635747
-0.0650117
-0.0664022
-0.0677468
-0.0690461
-0.0703019
-0.0715156
-0.0726977
-0.0738721
-0.0751608
-0.0682626
-0.0699598
-0.0716055
-0.0732002
-0.0747448
-0.07624
-0.0776865
-0.0790867
-0.0804419
-0.0817664
-0.0830884
-0.0845638
-0.0767082
-0.0785912
-0.0804181
-0.0821899
-0.0839074
-0.0855717
-0.0871834
-0.0887456
-0.0902598
-0.0917444
-0.093233
-0.0949222
-0.0859322
-0.0880232
-0.090053
-0.0920227
-0.0939333
-0.0957866
-0.097583
-0.0993267
-0.101019
-0.102683
-0.10436
-0.106293
-0.0959737
-0.0982963
-0.100552
-0.102742
-0.104868
-0.106932
-0.108934
-0.110879
-0.11277
-0.114636
-0.116524
-0.118736
-0.106873
-0.109452
-0.111957
-0.114392
-0.116757
-0.119055
-0.121285
-0.123456
-0.125567
-0.127657
-0.129782
-0.13231
-0.118669
-0.121531
-0.124312
-0.127016
-0.129643
-0.132198
-0.134682
-0.137103
-0.139461
-0.141803
-0.144193
-0.147076
-0.131402
-0.134574
-0.137659
-0.140658
-0.143574
-0.146411
-0.149169
-0.151863
-0.154491
-0.157116
-0.159806
-0.163092
-0.145109
-0.148618
-0.15203
-0.155353
-0.158586
-0.161737
-0.1648
-0.167794
-0.170713
-0.17364
-0.176659
-0.180399
-0.15983
-0.163702
-0.167467
-0.171133
-0.174702
-0.17819
-0.18159
-0.184928
-0.188181
-0.191453
-0.194826
-0.199066
-0.175593
-0.179859
-0.184008
-0.18805
-0.191979
-0.195818
-0.199555
-0.203251
-0.206866
-0.210556
-0.214349
-0.219182
-0.192417
-0.197097
-0.201653
-0.206106
-0.21044
-0.214689
-0.218801
-0.222877
-0.226822
-0.230943
-0.235175
-0.240753
-0.210344
-0.215447
-0.220411
-0.225272
-0.230015
-0.234716
-0.239283
-0.243878
-0.248242
-0.252869
-0.257468
-0.263916
-0.22941
-0.234966
-0.240364
-0.245642
-0.250769
-0.255869
-0.260827
-0.26597
-0.27087
-0.276321
-0.281426
-0.289002
-0.249557
-0.255586
-0.261463
-0.267229
-0.27283
-0.278386
-0.283705
-0.289253
-0.294454
-0.300731
-0.306456
-0.315782
-0.270698
-0.277141
-0.283447
-0.289678
-0.295812
-0.301982
-0.307949
-0.314175
-0.319772
-0.326675
-0.332502
-0.343871
-0.292984
-0.299751
-0.30636
-0.312884
-0.31936
-0.325962
-0.33259
-0.339758
-0.346548
-0.354926
-0.361305
-0.374783
-0.316777
-0.323893
-0.330813
-0.337597
-0.344301
-0.351062
-0.357918
-0.365353
-0.372997
-0.382899
-0.391564
-0.408567
-0.341549
-0.349068
-0.356397
-0.363591
-0.370709
-0.377815
-0.384965
-0.392328
-0.399867
-0.408758
-0.417827
-0.435975
-0.0250173
-0.0262095
-0.0269358
-0.0271486
-0.0267973
-0.0258726
-0.0243547
-0.0222443
-0.0195683
-0.0162958
-0.0124984
-0.00808592
-0.00318571
0.00233096
0.00827322
0.0147165
0.0213857
0.0282283
0.0349506
0.041273
0.0463167
0.0493702
0.0482217
0.0435089
0.03818
0.0358613
0.0343158
0.0312866
0.0234117
0.0117629
-0.0259607
-0.0271465
-0.027824
-0.0279632
-0.0275259
-0.0265131
-0.0249082
-0.0227163
-0.0199702
-0.0166399
-0.012805
-0.0083648
-0.00344965
0.00208836
0.00806217
0.0145639
0.0213177
0.0282777
0.0351952
0.0417257
0.0469628
0.050173
0.0486074
0.0434059
0.0378112
0.035731
0.0342386
0.0316504
0.0240498
0.0120722
-0.0277422
-0.0289173
-0.029498
-0.0294927
-0.0288887
-0.0277048
-0.0259327
-0.0235857
-0.0207077
-0.0172711
-0.0133707
-0.00888653
-0.00394965
0.00161912
0.00764989
0.0142544
0.0211641
0.0283373
0.0356272
0.0425483
0.048185
0.051696
0.049298
0.0431501
0.0370707
0.0354235
0.0340332
0.0323075
0.0251934
0.0126028
-0.030308
-0.03146
-0.0318905
-0.0316658
-0.030812
-0.0293736
-0.0273543
-0.0247802
-0.021714
-0.0181322
-0.0141513
-0.00962164
-0.00466992
0.000926476
0.00702934
0.0137705
0.0208866
0.0283536
0.0361724
0.0436515
0.0499135
0.0538738
0.0501676
0.0426296
0.0359209
0.0348614
0.0335945
0.0331626
0.0267215
0.0132295
-0.0336243
-0.0347337
-0.0349512
-0.0344238
-0.0332302
-0.031448
-0.0290974
-0.0262244
-0.0229191
-0.0191647
-0.0151035
-0.0105456
-0.00560206
3.03316e-06
0.00618451
0.0130838
0.0204361
0.0282591
0.036738
0.0449304
0.052064
0.0566217
0.0510442
0.0417025
0.034304
0.0339185
0.0328125
0.0340753
0.02848
0.0137942
-0.0376767
-0.0387152
-0.0386441
-0.0377178
-0.0360832
-0.0338586
-0.0310868
-0.0278413
-0.0242509
-0.0203092
-0.0161866
-0.0116401
-0.00674639
-0.00116814
0.00509243
0.0121583
0.0197572
0.027975
0.0372125
0.0462557
0.0545256
0.0597925
0.0516931
0.0401994
0.032137
0.0324321
0.0315888
0.0348439
0.030245
0.0141102
-0.0424673
-0.0433956
-0.0429443
-0.0415062
-0.039315
-0.0365369
-0.0332449
-0.0295501
-0.0256333
-0.0215044
-0.0173624
-0.0128933
-0.00811231
-0.00261232
0.00372555
0.0109544
0.0187937
0.0274133
0.0374653
0.0474585
0.0571251
0.063114
0.0518041
0.0379204
0.0293162
0.0302244
0.0298358
0.0352346
0.0316651
0.0139616
-0.0480099
-0.0487761
-0.0478336
-0.0457511
-0.04287
-0.039412
-0.0354896
-0.0312645
-0.0269852
-0.0226876
-0.0185962
-0.0143009
-0.0097195
-0.00436216
0.00205296
0.00943166
0.017494
0.0264808
0.0373452
0.0483155
0.0596007
0.0661094
0.0509893
0.0346289
0.0257225
0.0271261
0.0274699
0.0349939
0.0323462
0.0131283
-0.0543292
-0.0548668
-0.0532994
-0.0504166
-0.0466918
-0.0424101
-0.0377328
-0.0328936
-0.028219
-0.023794
-0.0198584
-0.0158677
-0.0115999
-0.0064565
4.1038e-05
0.00755277
0.0158162
0.0250859
0.0366932
0.048523
0.0615336
0.0680278
0.0488156
0.0300734
0.0212285
0.0229968
0.0244235
0.033939
0.0319559
0.011467
-0.0614589
-0.0616841
-0.0593323
-0.0554674
-0.0507221
-0.0454527
-0.0398806
-0.0343446
-0.0292355
-0.0247574
-0.0211252
-0.0176106
-0.0137995
-0.00893964
-0.00234681
0.00528797
0.0137326
0.0231507
0.0353535
0.0477107
0.0621743
0.0678445
0.0449474
0.0241043
0.0157257
0.0177473
0.0206698
0.0319998
0.030348
0.00901212
-0.0694404
-0.0692504
-0.0659255
-0.060868
-0.0549001
-0.0484549
-0.0418291
-0.0354863
-0.0299229
-0.0255118
-0.0223811
-0.0195616
-0.0163806
-0.0118619
-0.00514987
0.00261929
0.0112343
0.0206287
0.0332049
0.0455158
0.0602282
0.0643288
0.039345
0.016913
0.00921563
0.0113784
0.0162367
0.0291703
0.0275853
0.00595869
-0.0783221
-0.0775926
-0.0730743
-0.0665832
-0.0591629
-0.0513249
-0.0434637
-0.0362227
-0.030359
-0.0259985
-0.0236196
-0.0217724
-0.019423
-0.0152814
-0.00841018
-0.000456872
0.00833136
0.0175206
0.0302057
0.0416819
0.0583635
0.0563547
0.0321056
0.00905391
0.00191605
0.00402444
0.0112071
0.0255036
0.0239026
0.00259489
-0.0881583
-0.0867417
-0.0807755
-0.0725784
-0.0634469
-0.0539666
-0.0446588
-0.0363978
-0.0300934
-0.0261205
-0.0248453
-0.0243194
-0.0230259
-0.0192657
-0.0121715
-0.00393225
0.00504696
0.0138912
0.0264148
0.035763
0.0464134
0.0434977
0.0232659
0.00120117
-0.00578998
-0.00405212
0.00572588
0.0211341
0.0196142
-0.000788444
-0.0990084
-0.0967318
-0.0890282
-0.0788215
-0.0676899
-0.0562824
-0.0452891
-0.0358863
-0.0291949
-0.0258297
-0.0260846
-0.0273098
-0.0273093
-0.0238934
-0.016476
-0.0077942
0.00141226
0.00985761
0.0220092
0.0282309
0.0313588
0.027428
0.0130649
-0.00625788
-0.0134917
-0.0125098
-8.512e-06
0.0162268
0.0150207
-0.00395478
-0.110936
-0.107601
-0.0978343
-0.0852851
-0.0718332
-0.0581729
-0.0452279
-0.0345516
-0.0275344
-0.0250725
-0.0273851
-0.0308861
-0.0324139
-0.0292543
-0.0213615
-0.0120332
-0.00253422
0.00555267
0.0171868
0.0197542
0.0158366
0.0109597
0.00233641
-0.0131892
-0.0208588
-0.0209854
-0.00580795
0.0109446
0.0103756
-0.00674158
-0.12401
-0.119389
-0.107199
-0.0919495
-0.0758245
-0.0595402
-0.0443477
-0.0322541
-0.0249828
-0.0238005
-0.0288232
-0.0352328
-0.0385028
-0.0354467
-0.026861
-0.0166434
-0.00674257
0.00110738
0.0121548
0.0112154
0.00205542
-0.0034749
-0.00779485
-0.0194697
-0.0276292
-0.029142
-0.0115174
0.00544244
0.00587963
-0.00906045
-0.138298
-0.132138
-0.117134
-0.0988058
-0.0796208
-0.0602902
-0.0425272
-0.0288555
-0.0214181
-0.0219747
-0.0305016
-0.0405925
-0.0457607
-0.0425739
-0.033002
-0.0216196
-0.0111467
-0.00336243
0.00710871
0.00339068
-0.00901656
-0.0148431
-0.016516
-0.0249668
-0.0336142
-0.0366941
-0.0170107
-0.000131171
0.00167527
-0.0108832
-0.153874
-0.145895
-0.12766
-0.105862
-0.0831908
-0.060336
-0.0396563
-0.0242251
-0.0167321
-0.0195731
-0.0326922
-0.0472619
-0.0543916
-0.0507406
-0.0398059
-0.0269534
-0.0156715
-0.00776534
0.00220781
-0.00328044
-0.0172869
-0.0231271
-0.0235193
-0.029629
-0.0387189
-0.0434324
-0.0221906
-0.00564065
-0.00215219
-0.0122235
-0.170811
-0.160701
-0.138798
-0.113145
-0.0865381
-0.0596014
-0.0356429
-0.0182436
-0.0108269
-0.0166075
-0.0355718
-0.0555619
-0.0646093
-0.0600496
-0.0472877
-0.0326302
-0.0202493
-0.0120326
-0.00243945
-0.00867093
-0.0231106
-0.0288112
-0.0288745
-0.0335001
-0.0429412
-0.0492295
-0.0269883
-0.0109748
-0.00556065
-0.013121
-0.189174
-0.176603
-0.150627
-0.120718
-0.0896097
-0.0580263
-0.0304204
-0.0108095
-0.00362153
-0.0131179
-0.0394021
-0.065853
-0.0766331
-0.0705959
-0.0554543
-0.0386291
-0.0248281
-0.0161172
-0.00677554
-0.0128454
-0.0270059
-0.0325385
-0.0328607
-0.0366802
-0.0463485
-0.0540328
-0.0313654
-0.0160484
-0.00853822
-0.0136301
-0.209021
-0.193641
-0.163214
-0.128644
-0.0924465
-0.0555895
-0.0239592
-0.00185057
0.00495037
-0.00916481
-0.0444896
-0.0785017
-0.090664
-0.082456
-0.0643007
-0.0449232
-0.0293714
-0.0199956
-0.010784
-0.0159671
-0.0295139
-0.0349159
-0.0358226
-0.0392914
-0.0490505
-0.0578534
-0.0353103
-0.0208002
-0.0110968
-0.0138111
-0.230419
-0.2119
-0.176651
-0.137023
-0.0950885
-0.0523178
-0.0162818
0.00865349
0.0149462
-0.00480254
-0.0510924
-0.0937683
-0.106831
-0.0956696
-0.0738049
-0.0514782
-0.0338537
-0.0236649
-0.0144765
-0.0182366
-0.0310999
-0.0364295
-0.0380753
-0.0414572
-0.0511739
-0.0607474
-0.0388315
-0.0251895
-0.0132652
-0.0137223
-0.25336
-0.231391
-0.191073
-0.145991
-0.0976165
-0.0483033
-0.00750575
0.0206145
0.0263829
-6.02793e-06
-0.059233
-0.111624
-0.12511
-0.110209
-0.0839188
-0.0582503
-0.0382571
-0.0271364
-0.0178828
-0.019847
-0.0321172
-0.0374413
-0.0398663
-0.0432843
-0.0528404
-0.0627987
-0.0419509
-0.0291927
-0.0150814
-0.0134272
-0.277791
-0.252143
-0.206656
-0.15572
-0.100172
-0.0437927
0.00208517
0.0337252
0.0391151
0.00532683
-0.0685514
-0.131546
-0.145214
-0.125936
-0.0945566
-0.0651849
-0.0425674
-0.030427
-0.0210426
-0.0209673
-0.0328214
-0.0382101
-0.0413824
-0.0448531
-0.054151
-0.0641054
-0.0446985
-0.0328
-0.0165877
-0.0129736
-0.30354
-0.274162
-0.223604
-0.166414
-0.102988
-0.0391794
0.0120136
0.0473713
0.0526205
0.0111933
-0.0783444
-0.152546
-0.166538
-0.142568
-0.105585
-0.0722142
-0.0467709
-0.0335544
-0.0240006
-0.0217397
-0.0333924
-0.0389099
-0.0427693
-0.0462304
-0.0551713
-0.0647675
-0.0471089
-0.0360114
-0.0178296
-0.0124057
-0.330261
-0.297412
-0.242105
-0.178303
-0.106424
-0.0350559
0.0215221
0.0605435
0.0658575
0.0172021
-0.0878266
-0.173325
-0.188221
-0.159682
-0.11682
-0.079258
-0.0508526
-0.0365358
-0.026803
-0.0222801
-0.0339503
-0.0396326
-0.0441238
-0.0474923
-0.0559498
-0.0648773
-0.0492169
-0.0388348
-0.0188529
-0.011761
-0.35729
-0.321733
-0.262273
-0.191606
-0.110967
-0.0322227
0.0295741
0.0718028
0.0773564
0.0226256
-0.0964582
-0.193714
-0.209328
-0.176767
-0.128044
-0.0862224
-0.0547954
-0.0393863
-0.0294913
-0.0226819
-0.0345797
-0.0403657
-0.045454
-0.048706
-0.056585
-0.0645233
-0.0510542
-0.0412848
-0.0197003
-0.0110706
-0.384156
-0.346867
-0.284113
-0.206533
-0.117214
-0.0316793
0.0345169
0.0794806
0.0856309
0.0267006
-0.104146
-0.210664
-0.229027
-0.193277
-0.139024
-0.0930248
-0.0585859
-0.0421205
-0.0321006
-0.0230193
-0.0353256
-0.0409775
-0.0466796
-0.0498706
-0.0572259
-0.0638176
-0.0526626
-0.0433832
-0.0204106
-0.010354
-0.410907
-0.372521
-0.307537
-0.22333
-0.125859
-0.0343924
0.0353979
0.0823226
0.0891979
0.0277202
-0.111944
-0.225539
-0.247059
-0.208841
-0.149502
-0.0995331
-0.0622053
-0.0447509
-0.0346717
-0.0233596
-0.0361502
-0.0414551
-0.0478117
-0.0509273
-0.0578236
-0.0628744
-0.0541104
-0.0451525
-0.0210167
-0.00961575
-0.436811
-0.397279
-0.331541
-0.241702
-0.137191
-0.0409324
0.0317118
0.0796101
0.0843311
0.0202246
-0.122178
-0.237463
-0.262601
-0.223282
-0.159727
-0.105995
-0.0656683
-0.0472714
-0.0372999
-0.0237821
-0.0373254
-0.0428273
-0.0492997
-0.0518914
-0.0578024
-0.0615934
-0.0553022
-0.0466566
-0.0215594
-0.00892019
-0.455282
-0.411188
-0.345914
-0.254139
-0.147301
-0.0504808
0.0208162
0.0662114
0.0676033
0.00338421
-0.131138
-0.240556
-0.267421
-0.230988
-0.166343
-0.11115
-0.0691744
-0.0492929
-0.0396462
-0.0253113
-0.0403052
-0.0468164
-0.0514232
-0.0527184
-0.0565722
-0.05911
-0.0555434
-0.0474598
-0.0219558
-0.00859929
-0.46145
-0.417131
-0.349652
-0.253281
-0.144273
-0.0493822
0.0188529
0.0598598
0.0540315
-0.0131188
-0.145096
-0.25134
-0.275842
-0.236896
-0.169505
-0.113115
-0.0704781
-0.0504126
-0.0411445
-0.0260879
-0.040911
-0.0486574
-0.0525294
-0.0533516
-0.0560548
-0.0587046
-0.0559139
-0.0482424
-0.0221081
-0.00828346
-0.465697
-0.419926
-0.349782
-0.249356
-0.139826
-0.0489733
0.0143166
0.048992
0.0367157
-0.0315275
-0.158582
-0.26169
-0.283711
-0.241008
-0.170336
-0.112919
-0.0704402
-0.051025
-0.042071
-0.0265808
-0.0410991
-0.0502624
-0.0535858
-0.0539569
-0.055582
-0.0584001
-0.0563471
-0.0490771
-0.0221166
-0.00787196
-0.469738
-0.422684
-0.350994
-0.248279
-0.139985
-0.0540799
0.00455155
0.0331733
0.0164389
-0.0503821
-0.171108
-0.270171
-0.28973
-0.24433
-0.171011
-0.112746
-0.0705115
-0.0517056
-0.0429601
-0.0272403
-0.0416857
-0.0519762
-0.0546404
-0.0545203
-0.0550807
-0.0578738
-0.0567296
-0.0498723
-0.0220787
-0.00740161
-0.472711
-0.424677
-0.352425
-0.249074
-0.143793
-0.0639987
-0.00995431
0.0133336
-0.00589645
-0.0693376
-0.182626
-0.277203
-0.294481
-0.247142
-0.171786
-0.112944
-0.0709287
-0.0525728
-0.0440075
-0.0282054
-0.0426291
-0.053777
-0.0556837
-0.0550417
-0.0545615
-0.0572525
-0.057054
-0.0506069
-0.0220224
-0.00688712
-0.474354
-0.425615
-0.353818
-0.251537
-0.15171
-0.0785345
-0.0285995
-0.00983922
-0.0294684
-0.0879677
-0.192964
-0.282727
-0.298091
-0.249308
-0.172318
-0.113187
-0.0714822
-0.0535555
-0.0451934
-0.0294608
-0.0438296
-0.0556572
-0.056716
-0.0555228
-0.0540318
-0.0565776
-0.0573348
-0.0512896
-0.0219418
-0.00633078
-0.474594
-0.425507
-0.355383
-0.25652
-0.163322
-0.0971993
-0.0527107
-0.0354988
-0.0534621
-0.105869
-0.201975
-0.286624
-0.300469
-0.250733
-0.172468
-0.113327
-0.0720713
-0.0546162
-0.0465021
-0.0310028
-0.0452868
-0.0576221
-0.057737
-0.0559651
-0.0534963
-0.0558581
-0.057578
-0.0519265
-0.0218312
-0.00573589
-0.473387
-0.424407
-0.357508
-0.263621
-0.178952
-0.11997
-0.0789572
-0.0627168
-0.0771729
-0.122678
-0.209534
-0.288835
-0.301565
-0.251396
-0.17225
-0.113388
-0.0727075
-0.0557625
-0.0479645
-0.032859
-0.0470036
-0.059669
-0.0587456
-0.0563697
-0.0529592
-0.0550972
-0.0577853
-0.0525183
-0.0216923
-0.00510748
-0.470742
-0.42312
-0.359601
-0.27337
-0.198547
-0.146349
-0.106664
-0.09043
-0.100044
-0.138089
-0.215556
-0.289332
-0.301365
-0.251285
-0.171676
-0.113406
-0.0734126
-0.057009
-0.0496257
-0.0350611
-0.0489668
-0.061789
-0.0597398
-0.0567382
-0.0524241
-0.0543009
-0.0579584
-0.0530649
-0.0215298
-0.00445088
-0.466132
-0.421711
-0.362765
-0.285906
-0.221731
-0.17591
-0.136268
-0.117829
-0.121643
-0.151869
-0.219989
-0.288119
-0.299863
-0.250376
-0.170734
-0.113386
-0.0741896
-0.0583647
-0.0515255
-0.0376321
-0.0511656
-0.0639717
-0.0607175
-0.0570717
-0.0518944
-0.0534768
-0.0580995
-0.0535666
-0.0213482
-0.00377159
-0.460347
-0.419953
-0.367258
-0.301147
-0.248078
-0.208177
-0.167266
-0.144378
-0.141656
-0.163861
-0.222822
-0.285237
-0.29706
-0.248648
-0.169406
-0.113319
-0.0750337
-0.0598371
-0.0536959
-0.0405874
-0.0535979
-0.0662061
-0.0616767
-0.0573715
-0.0513733
-0.0526327
-0.0582109
-0.0540248
-0.0211514
-0.00307532
-0.454031
-0.418288
-0.373235
-0.318968
-0.277107
-0.242725
-0.198957
-0.169716
-0.159877
-0.173985
-0.224073
-0.280753
-0.292969
-0.246079
-0.167676
-0.113196
-0.0759409
-0.0614346
-0.0561634
-0.0439394
-0.0562828
-0.0684777
-0.062615
-0.057639
-0.050864
-0.0517762
-0.0582947
-0.0544408
-0.0209436
-0.00236815
-0.447451
-0.417097
-0.380839
-0.339128
-0.308256
-0.279277
-0.230786
-0.193621
-0.176173
-0.18223
-0.22379
-0.274766
-0.287612
-0.242653
-0.165534
-0.113007
-0.076908
-0.0631673
-0.0589488
-0.0476953
-0.0592934
-0.0707693
-0.0635302
-0.0578755
-0.0503696
-0.0509148
-0.058353
-0.0548161
-0.0207286
-0.00165644
-0.440935
-0.416658
-0.390098
-0.361238
-0.340831
-0.316951
-0.26226
-0.215988
-0.190489
-0.18864
-0.222036
-0.2674
-0.281014
-0.238358
-0.162971
-0.112742
-0.0779309
-0.0650454
-0.0620658
-0.0518544
-0.0623122
-0.0730606
-0.06442
-0.0580821
-0.049893
-0.0500558
-0.0583881
-0.0551524
-0.0205106
-0.000946727
-0.43482
-0.417159
-0.400894
-0.384783
-0.373964
-0.341038
-0.292611
-0.236791
-0.20284
-0.193306
-0.218891
-0.258804
-0.273217
-0.233186
-0.159978
-0.112386
-0.0790036
-0.0670783
-0.06552
-0.0564091
-0.0654382
-0.0753325
-0.0652822
-0.0582599
-0.049437
-0.049207
-0.0584022
-0.0554514
-0.0202936
-0.00024561
-0.42937
-0.418668
-0.412965
-0.409177
-0.407432
-0.377076
-0.321579
-0.256012
-0.213303
-0.196353
-0.214452
-0.249137
-0.264251
-0.227138
-0.156549
-0.111924
-0.0801183
-0.0692729
-0.0693091
-0.0613421
-0.0686484
-0.0775668
-0.0661142
-0.0584102
-0.0490042
-0.0483757
-0.0583976
-0.055715
-0.0200814
0.000440378
-0.424734
-0.421115
-0.425913
-0.433769
-0.440431
-0.411546
-0.348961
-0.273638
-0.222001
-0.197928
-0.208831
-0.23857
-0.254155
-0.220216
-0.152682
-0.111338
-0.0812649
-0.0716327
-0.0734224
-0.0666265
-0.071917
-0.0797472
-0.0669138
-0.0585336
-0.0485973
-0.0475687
-0.0583767
-0.0559452
-0.0198774
0.0011049
-0.420944
-0.424315
-0.439258
-0.457883
-0.472218
-0.444035
-0.374578
-0.289675
-0.229094
-0.198196
-0.202163
-0.227283
-0.243176
-0.212421
-0.148376
-0.110609
-0.0824308
-0.0741559
-0.077842
-0.0722261
-0.0752202
-0.081859
-0.0676783
-0.0586311
-0.0482187
-0.0467925
-0.0583414
-0.0561439
-0.019685
0.0017419
-0.417908
-0.427959
-0.452402
-0.480832
-0.502085
-0.474131
-0.39828
-0.304129
-0.234765
-0.197331
-0.194606
-0.215442
-0.231216
-0.203759
-0.143634
-0.109716
-0.0836009
-0.0768344
-0.0825425
-0.0780965
-0.0785365
-0.0838891
-0.0684052
-0.0587031
-0.0478705
-0.0460535
-0.0582942
-0.0563132
-0.0195071
0.0023457
-0.415425
-0.43165
-0.464706
-0.50195
-0.529269
-0.501662
-0.419849
-0.316999
-0.239206
-0.195517
-0.186346
-0.203201
-0.218381
-0.194254
-0.138464
-0.10864
-0.0847569
-0.0796528
-0.0874918
-0.0841865
-0.0818463
-0.0858261
-0.0690919
-0.0587499
-0.0475549
-0.0453572
-0.0582372
)
;

boundaryField
{
    inlet
    {
        type            zeroGradient;
    }
    outlet
    {
        type            fixedValue;
        value           uniform 0;
    }
    cylinder
    {
        type            zeroGradient;
    }
    top
    {
        type            symmetryPlane;
    }
    bottom
    {
        type            symmetryPlane;
    }
    defaultFaces
    {
        type            empty;
    }
    procBoundary1to0
    {
        type            processor;
        value           nonuniform List<scalar> 
50
(
-0.364325
-0.408458
-0.408458
-0.451616
-0.451616
-0.513953
-0.487927
-0.487927
-0.530127
-0.530127
-0.537225
-0.537225
-0.539761
-0.539761
-0.540138
-0.533746
-0.533746
-0.53354
-0.53354
-0.0178761
-0.0186644
-0.0201322
-0.0222234
-0.0249191
-0.0281982
-0.0320606
-0.0365114
-0.0415646
-0.0472395
-0.0535615
-0.0535615
-0.0589791
-0.0665133
-0.0747684
-0.0837791
-0.093583
-0.104219
-0.115725
-0.128139
-0.141501
-0.155848
-0.171209
-0.187612
-0.2051
-0.223699
-0.243372
-0.264093
-0.286017
-0.309418
-0.333784
)
;
    }
    procBoundary1to3
    {
        type            processor;
        value           nonuniform List<scalar> 
41
(
-0.388165
-0.390554
-0.391265
-0.391698
-0.392185
-0.39292
-0.394042
-0.395731
-0.398177
-0.401889
-0.413231
-0.434975
-0.475588
-0.520659
-0.553237
-0.526253
-0.439076
-0.328279
-0.242589
-0.192942
-0.177595
-0.190705
-0.20483
-0.183938
-0.132881
-0.107361
-0.085878
-0.0825879
-0.0926513
-0.0904396
-0.0851321
-0.0876603
-0.0697353
-0.0587717
-0.0472738
-0.0447084
-0.0581726
-0.0564548
-0.019346
0.00291105
-0.0564548
)
;
    }
}


// ************************************************************************* //
